        82  EXT
         1         1  6VX       S1              7.0600000000       21.2470000000        5.7930000000  HETA      1               0.0000000000
         2         1  6VX       O2              8.1230000000       22.1520000000        5.6300000000  HETA      1               0.0000000000
         3         1  6VX       O3              5.7770000000       21.7370000000        5.4830000000  HETA      1               0.0000000000
         4         1  6VX       C4             12.1110000000       20.6540000000        2.3960000000  HETA      1               0.0000000000
         5         1  6VX       C5             11.1470000000       21.4080000000        3.0100000000  HETA      1               0.0000000000
         6         1  6VX       C6              9.8040000000       20.9610000000        3.0480000000  HETA      1               0.0000000000
         7         1  6VX       C7              9.4330000000       19.7650000000        2.4760000000  HETA      1               0.0000000000
         8         1  6VX       C8             10.4230000000       18.9690000000        1.8080000000  HETA      1               0.0000000000
         9         1  6VX       C9             11.7690000000       19.4190000000        1.7810000000  HETA      1               0.0000000000
        10         1  6VX       C10            12.7600000000       18.6310000000        1.1320000000  HETA      1               0.0000000000
        11         1  6VX       C11            12.4250000000       17.4460000000        0.5260000000  HETA      1               0.0000000000
        12         1  6VX       C12            11.0820000000       17.0000000000        0.5400000000  HETA      1               0.0000000000
        13         1  6VX       C13            10.1080000000       17.7410000000        1.1620000000  HETA      1               0.0000000000
        14         1  6VX       O14             2.5530000000       16.5320000000       -0.6410000000  HETA      1               0.0000000000
        15         1  6VX       C15             2.0000000000       17.7960000000       -0.9340000000  HETA      1               0.0000000000
        16         1  6VX       N16             3.3090000000       18.9750000000        0.8180000000  HETA      1               0.0000000000
        17         1  6VX       C17             2.9390000000       18.9720000000       -0.5750000000  HETA      1               0.0000000000
        18         1  6VX       C18             4.1570000000       18.9340000000       -1.5190000000  HETA      1               0.0000000000
        19         1  6VX       C19             4.9550000000       20.1870000000       -1.4870000000  HETA      1               0.0000000000
        20         1  6VX       C20             6.2770000000       20.1730000000       -1.0290000000  HETA      1               0.0000000000
        21         1  6VX       C21             7.0330000000       21.3440000000       -1.0240000000  HETA      1               0.0000000000
        22         1  6VX       C22             6.4760000000       22.5400000000       -1.4770000000  HETA      1               0.0000000000
        23         1  6VX       C23             5.1590000000       22.5590000000       -1.9360000000  HETA      1               0.0000000000
        24         1  6VX       C24             4.4020000000       21.3910000000       -1.9430000000  HETA      1               0.0000000000
        25         1  6VX       N25             4.5530000000       20.1610000000        3.3670000000  HETA      1               0.0000000000
        26         1  6VX       C26             3.2120000000       19.6570000000        3.2040000000  HETA      1               0.0000000000
        27         1  6VX       C27             2.7470000000       19.8340000000        1.7310000000  HETA      1               0.0000000000
        28         1  6VX       O28             1.9230000000       20.7090000000        1.4030000000  HETA      1               0.0000000000
        29         1  6VX       C29             2.1830000000       20.3280000000        4.1410000000  HETA      1               0.0000000000
        30         1  6VX       C30             0.8800000000       19.5560000000        4.0780000000  HETA      1               0.0000000000
        31         1  6VX       C31             2.6810000000       20.3940000000        5.5690000000  HETA      1               0.0000000000
        32         1  6VX       C32             5.6560000000       19.3820000000        3.1220000000  HETA      1               0.0000000000
        33         1  6VX       O33             5.5390000000       18.2110000000        2.6980000000  HETA      1               0.0000000000
        34         1  6VX       C34             7.0420000000       19.9910000000        3.3850000000  HETA      1               0.0000000000
        35         1  6VX       C35             8.0360000000       19.2530000000        2.4960000000  HETA      1               0.0000000000
        36         1  6VX       C36             7.3860000000       19.8480000000        4.8610000000  HETA      1               0.0000000000
        37         1  6VX       C37             5.9200000000       19.6470000000        7.6520000000  HETA      1               0.0000000000
        38         1  6VX       C38             7.0690000000       20.6090000000        7.4140000000  HETA      1               0.0000000000
        39         1  6VX       C39             6.8960000000       21.8090000000        8.3390000000  HETA      1               0.0000000000
        40         1  6VX       C40             8.3840000000       19.9280000000        7.7390000000  HETA      1               0.0000000000
        41         1  6VX       H01            13.1580000000       20.9880000000        2.3650000000  HETA      1               0.0000000000
        42         1  6VX       H02            11.3950000000       22.3690000000        3.4860000000  HETA      1               0.0000000000
        43         1  6VX       H03             9.0720000000       21.6060000000        3.5630000000  HETA      1               0.0000000000
        44         1  6VX       H04            13.7980000000       18.9950000000        1.1260000000  HETA      1               0.0000000000
        45         1  6VX       H05            13.1890000000       16.8340000000        0.0240000000  HETA      1               0.0000000000
        46         1  6VX       H06            10.8300000000       16.0520000000        0.0420000000  HETA      1               0.0000000000
        47         1  6VX       H07             9.0670000000       17.3850000000        1.1570000000  HETA      1               0.0000000000
        48         1  6VX       H08             3.3610000000       16.4430000000       -1.1590000000  HETA      1               0.0000000000
        49         1  6VX       H09             1.0610000000       17.8420000000       -0.3180000000  HETA      1               0.0000000000
        50         1  6VX       H10             1.7360000000       17.8650000000       -2.0230000000  HETA      1               0.0000000000
        51         1  6VX       H11             3.9420000000       18.2710000000        1.1260000000  HETA      1               0.0000000000
        52         1  6VX       H12             2.3620000000       19.9270000000       -0.7820000000  HETA      1               0.0000000000
        53         1  6VX       H13             3.7720000000       18.7750000000       -2.5620000000  HETA      1               0.0000000000
        54         1  6VX       H14             4.8080000000       18.0560000000       -1.2620000000  HETA      1               0.0000000000
        55         1  6VX       H15             6.7230000000       19.2320000000       -0.6710000000  HETA      1               0.0000000000
        56         1  6VX       H16             8.0730000000       21.3220000000       -0.6630000000  HETA      1               0.0000000000
        57         1  6VX       H17             7.0730000000       23.4630000000       -1.4720000000  HETA      1               0.0000000000
        58         1  6VX       H18             4.7150000000       23.5020000000       -2.2920000000  HETA      1               0.0000000000
        59         1  6VX       H19             3.3630000000       21.4130000000       -2.3020000000  HETA      1               0.0000000000
        60         1  6VX       H20             4.6560000000       21.0870000000        3.7260000000  HETA      1               0.0000000000
        61         1  6VX       H21             3.2220000000       18.5460000000        3.4360000000  HETA      1               0.0000000000
        62         1  6VX       H22             1.9970000000       21.3750000000        3.7660000000  HETA      1               0.0000000000
        63         1  6VX       H23             0.1200000000       20.0440000000        4.7350000000  HETA      1               0.0000000000
        64         1  6VX       H24             0.4870000000       19.5430000000        3.0330000000  HETA      1               0.0000000000
        65         1  6VX       H25             1.0230000000       18.5040000000        4.4250000000  HETA      1               0.0000000000
        66         1  6VX       H26             3.5060000000       21.1410000000        5.6770000000  HETA      1               0.0000000000
        67         1  6VX       H27             1.8460000000       20.7010000000        6.2450000000  HETA      1               0.0000000000
        68         1  6VX       H28             3.0550000000       19.3980000000        5.9040000000  HETA      1               0.0000000000
        69         1  6VX       H29             7.0350000000       21.0820000000        3.1020000000  HETA      1               0.0000000000
        70         1  6VX       H30             8.0400000000       18.1740000000        2.8220000000  HETA      1               0.0000000000
        71         1  6VX       H31             7.6370000000       19.2770000000        1.4410000000  HETA      1               0.0000000000
        72         1  6VX       H32             6.8680000000       18.9320000000        5.2550000000  HETA      1               0.0000000000
        73         1  6VX       H33             8.4860000000       19.6080000000        4.9270000000  HETA      1               0.0000000000
        74         1  6VX       H34             4.9740000000       20.0550000000        7.2100000000  HETA      1               0.0000000000
        75         1  6VX       H35             6.1330000000       18.6460000000        7.2030000000  HETA      1               0.0000000000
        76         1  6VX       H36             5.7610000000       19.4990000000        8.7480000000  HETA      1               0.0000000000
        77         1  6VX       H37             5.9020000000       22.2890000000        8.1620000000  HETA      1               0.0000000000
        78         1  6VX       H38             6.9470000000       21.4850000000        9.4070000000  HETA      1               0.0000000000
        79         1  6VX       H39             7.7090000000       22.5570000000        8.1580000000  HETA      1               0.0000000000
        80         1  6VX       H40             8.4260000000       19.6710000000        8.8260000000  HETA      1               0.0000000000
        81         1  6VX       H41             8.4960000000       18.9820000000        7.1560000000  HETA      1               0.0000000000
        82         1  6VX       H42             9.2400000000       20.6090000000        7.5040000000  HETA      1               0.0000000000
