PSF EXT CMAP XPLOR

         2 !NTITLE
* GENERATE LIGAND                                                               
*  DATE:     1/24/26      7:59:28      CREATED BY USER: charmm-gui              

        82 !NATOM
         1 LIG      1        LIG      S1       SG3O2    0.122000       32.0600           0
         2 LIG      1        LIG      O1       OG2P1   -0.369000       15.9994           0
         3 LIG      1        LIG      O2       OG2P1   -0.369000       15.9994           0
         4 LIG      1        LIG      C1       CG2R61  -0.119000       12.0110           0
         5 LIG      1        LIG      C2       CG2R61  -0.109000       12.0110           0
         6 LIG      1        LIG      C3       CG2R61  -0.120000       12.0110           0
         7 LIG      1        LIG      C4       CG2R61  -0.210000E-01   12.0110           0
         8 LIG      1        LIG      C5       CG2R61  -0.110000E-01   12.0110           0
         9 LIG      1        LIG      C6       CG2R61   0.400000E-02   12.0110           0
        10 LIG      1        LIG      C7       CG2R61  -0.119000       12.0110           0
        11 LIG      1        LIG      C8       CG2R61  -0.113000       12.0110           0
        12 LIG      1        LIG      C9       CG2R61  -0.113000       12.0110           0
        13 LIG      1        LIG      C10      CG2R61  -0.115000       12.0110           0
        14 LIG      1        LIG      O3       OG311   -0.645000       15.9994           0
        15 LIG      1        LIG      C11      CG321    0.740000E-01   12.0110           0
        16 LIG      1        LIG      N1       NG2S1   -0.432000       14.0070           0
        17 LIG      1        LIG      CA1      CG311   -0.550000E-01   12.0110           0
        18 LIG      1        LIG      CB1      CG321   -0.139000       12.0110           0
        19 LIG      1        LIG      CG       CG2R61  -0.190000E-01   12.0110           0
        20 LIG      1        LIG      CD1      CG2R61  -0.123000       12.0110           0
        21 LIG      1        LIG      CE1      CG2R61  -0.112000       12.0110           0
        22 LIG      1        LIG      CZ       CG2R61  -0.116000       12.0110           0
        23 LIG      1        LIG      CE2      CG2R61  -0.112000       12.0110           0
        24 LIG      1        LIG      CD2      CG2R61  -0.123000       12.0110           0
        25 LIG      1        LIG      N2       NG2S1   -0.449000       14.0070           0
        26 LIG      1        LIG      CA2      CG311    0.700000E-01   12.0110           0
        27 LIG      1        LIG      C12      CG2O1    0.538000       12.0110           0
        28 LIG      1        LIG      O4       OG2D1   -0.510000       15.9994           0
        29 LIG      1        LIG      CB2      CG311   -0.780000E-01   12.0110           0
        30 LIG      1        LIG      CG2      CG331   -0.269000       12.0110           0
        31 LIG      1        LIG      CG1      CG331   -0.269000       12.0110           0
        32 LIG      1        LIG      C25      CG2O1    0.487000       12.0110           0
        33 LIG      1        LIG      O5       OG2D1   -0.508000       15.9994           0
        34 LIG      1        LIG      C26      CG311    0.830000E-01   12.0110           0
        35 LIG      1        LIG      C27      CG321   -0.215000       12.0110           0
        36 LIG      1        LIG      C28      CG321   -0.600000E-02   12.0110           0
        37 LIG      1        LIG      C29      CG331   -0.214000       12.0110           0
        38 LIG      1        LIG      C30      CG301    0.198000       12.0110           0
        39 LIG      1        LIG      C31      CG331   -0.214000       12.0110           0
        40 LIG      1        LIG      C32      CG331   -0.214000       12.0110           0
        41 LIG      1        LIG      H1       HGR61    0.116000       1.00800           0
        42 LIG      1        LIG      H2       HGR61    0.116000       1.00800           0
        43 LIG      1        LIG      H3       HGR61    0.116000       1.00800           0
        44 LIG      1        LIG      H4       HGR61    0.116000       1.00800           0
        45 LIG      1        LIG      H5       HGR61    0.116000       1.00800           0
        46 LIG      1        LIG      H6       HGR61    0.116000       1.00800           0
        47 LIG      1        LIG      H7       HGR61    0.116000       1.00800           0
        48 LIG      1        LIG      H8       HGP1     0.417000       1.00800           0
        49 LIG      1        LIG      H11      HGA2     0.900000E-01   1.00800           0
        50 LIG      1        LIG      H12      HGA2     0.900000E-01   1.00800           0
        51 LIG      1        LIG      H9       HGP1     0.316000       1.00800           0
        52 LIG      1        LIG      HA1      HGA1     0.900000E-01   1.00800           0
        53 LIG      1        LIG      HB1      HGA2     0.900000E-01   1.00800           0
        54 LIG      1        LIG      HB2      HGA2     0.900000E-01   1.00800           0
        55 LIG      1        LIG      HD1      HGR61    0.116000       1.00800           0
        56 LIG      1        LIG      HE1      HGR61    0.116000       1.00800           0
        57 LIG      1        LIG      HZ       HGR61    0.116000       1.00800           0
        58 LIG      1        LIG      HE2      HGR61    0.116000       1.00800           0
        59 LIG      1        LIG      HD2      HGR61    0.116000       1.00800           0
        60 LIG      1        LIG      H10      HGP1     0.269000       1.00800           0
        61 LIG      1        LIG      HA2      HGA1     0.900000E-01   1.00800           0
        62 LIG      1        LIG      HB       HGA1     0.900000E-01   1.00800           0
        63 LIG      1        LIG      HG21     HGA3     0.900000E-01   1.00800           0
        64 LIG      1        LIG      HG22     HGA3     0.900000E-01   1.00800           0
        65 LIG      1        LIG      HG23     HGA3     0.900000E-01   1.00800           0
        66 LIG      1        LIG      HG11     HGA3     0.900000E-01   1.00800           0
        67 LIG      1        LIG      HG12     HGA3     0.900000E-01   1.00800           0
        68 LIG      1        LIG      HG13     HGA3     0.900000E-01   1.00800           0
        69 LIG      1        LIG      H29      HGA1     0.900000E-01   1.00800           0
        70 LIG      1        LIG      H30      HGA2     0.900000E-01   1.00800           0
        71 LIG      1        LIG      H31      HGA2     0.900000E-01   1.00800           0
        72 LIG      1        LIG      H32      HGA2     0.900000E-01   1.00800           0
        73 LIG      1        LIG      H33      HGA2     0.900000E-01   1.00800           0
        74 LIG      1        LIG      H34      HGA3     0.900000E-01   1.00800           0
        75 LIG      1        LIG      H35      HGA3     0.900000E-01   1.00800           0
        76 LIG      1        LIG      H36      HGA3     0.900000E-01   1.00800           0
        77 LIG      1        LIG      H37      HGA3     0.900000E-01   1.00800           0
        78 LIG      1        LIG      H38      HGA3     0.900000E-01   1.00800           0
        79 LIG      1        LIG      H39      HGA3     0.900000E-01   1.00800           0
        80 LIG      1        LIG      H40      HGA3     0.900000E-01   1.00800           0
        81 LIG      1        LIG      H41      HGA3     0.900000E-01   1.00800           0
        82 LIG      1        LIG      H42      HGA3     0.900000E-01   1.00800           0

        84 !NBOND: bonds
         1        38         2         1         3         1         4         5
         5         6         5        42         6        43         7        35
         7         6         8         7         9         8         9         4
        10         9        11        12        11        10        12        13
        13         8        15        14        15        17        15        49
        16        51        16        27        17        52        17        16
        18        19        18        54        18        17        19        20
        20        21        20        55        21        56        22        57
        22        21        23        22        24        23        24        19
        25        60        26        25        26        61        26        29
        27        26        28        27        29        31        30        29
        30        65        30        63        31        66        31        68
        31        67        32        25        34        32        33        32
        34        69        34        36        35        70        35        34
        36        73        36        72        36         1        37        76
        38        37        38        40        38        39        39        78
        40        80        41         4        44        10        45        11
        46        12        47        13        48        14        50        15
        53        18        58        23        59        24        62        29
        64        30        71        35        74        37        75        37
        77        39        79        39        81        40        82        40

       151 !NTHETA: angles
         2         1         3         2         1        36         2         1        38
         3         1        36         3         1        38        36         1        38
         5         4         9         5         4        41         9         4        41
         4         5         6         4         5        42         6         5        42
         5         6         7         5         6        43         7         6        43
         6         7         8         6         7        35         8         7        35
         7         8         9         7         8        13         9         8        13
         4         9         8         4         9        10         8         9        10
         9        10        11         9        10        44        11        10        44
        10        11        12        10        11        45        12        11        45
        11        12        13        11        12        46        13        12        46
         8        13        12         8        13        47        12        13        47
        15        14        48        14        15        17        14        15        49
        14        15        50        17        15        49        17        15        50
        49        15        50        17        16        27        17        16        51
        27        16        51        15        17        16        15        17        18
        15        17        52        16        17        18        16        17        52
        18        17        52        17        18        19        17        18        53
        17        18        54        19        18        53        19        18        54
        53        18        54        18        19        20        18        19        24
        20        19        24        19        20        21        19        20        55
        21        20        55        20        21        22        20        21        56
        22        21        56        21        22        23        21        22        57
        23        22        57        22        23        24        22        23        58
        24        23        58        19        24        23        19        24        59
        23        24        59        26        25        32        26        25        60
        32        25        60        25        26        27        25        26        29
        25        26        61        27        26        29        27        26        61
        29        26        61        16        27        26        16        27        28
        26        27        28        26        29        30        26        29        31
        26        29        62        30        29        31        30        29        62
        31        29        62        29        30        63        29        30        64
        29        30        65        63        30        64        63        30        65
        64        30        65        29        31        66        29        31        67
        29        31        68        66        31        67        66        31        68
        67        31        68        25        32        33        25        32        34
        33        32        34        32        34        35        32        34        36
        32        34        69        35        34        36        35        34        69
        36        34        69         7        35        34         7        35        70
         7        35        71        34        35        70        34        35        71
        70        35        71         1        36        34         1        36        72
         1        36        73        34        36        72        34        36        73
        72        36        73        38        37        74        38        37        75
        38        37        76        74        37        75        74        37        76
        75        37        76         1        38        37         1        38        39
         1        38        40        37        38        39        37        38        40
        39        38        40        38        39        77        38        39        78
        38        39        79        77        39        78        77        39        79
        78        39        79        38        40        80        38        40        81
        38        40        82        80        40        81        80        40        82
        81        40        82

       223 !NPHI: dihedrals
         1        36        34        32         1        36        34        35
         1        36        34        69         1        38        37        74
         1        38        37        75         1        38        37        76
         1        38        39        77         1        38        39        78
         1        38        39        79         1        38        40        80
         1        38        40        81         1        38        40        82
         2         1        36        34         2         1        36        72
         2         1        36        73         2         1        38        37
         2         1        38        39         2         1        38        40
         3         1        36        34         3         1        36        72
         3         1        36        73         3         1        38        37
         3         1        38        39         3         1        38        40
         4         5         6         7         4         5         6        43
         4         9         8         7         4         9         8        13
         4         9        10        11         4         9        10        44
         5         4         9         8         5         4         9        10
         5         6         7         8         5         6         7        35
         6         5         4         9         6         5         4        41
         6         7         8         9         6         7         8        13
         6         7        35        34         6         7        35        70
         6         7        35        71         7         6         5        42
         7         8         9        10         7         8        13        12
         7         8        13        47         7        35        34        32
         7        35        34        36         7        35        34        69
         8         7         6        43         8         7        35        34
         8         7        35        70         8         7        35        71
         8         9         4        41         8         9        10        11
         8         9        10        44         8        13        12        11
         8        13        12        46         9         4         5        42
         9         8         7        35         9         8        13        12
         9         8        13        47         9        10        11        12
         9        10        11        45        10         9         4        41
        10         9         8        13        10        11        12        13
        10        11        12        46        11        12        13        47
        12        11        10        44        13         8         7        35
        13        12        11        45        14        15        17        16
        14        15        17        18        14        15        17        52
        15        17        16        27        15        17        16        51
        15        17        18        19        15        17        18        53
        15        17        18        54        16        17        15        49
        16        17        15        50        16        17        18        19
        16        17        18        53        16        17        18        54
        16        27        26        25        16        27        26        29
        16        27        26        61        17        15        14        48
        17        16        27        26        17        16        27        28
        17        18        19        20        17        18        19        24
        18        17        15        49        18        17        15        50
        18        17        16        27        18        17        16        51
        18        19        20        21        18        19        20        55
        18        19        24        23        18        19        24        59
        19        18        17        52        19        20        21        22
        19        20        21        56        19        24        23        22
        19        24        23        58        20        19        18        53
        20        19        18        54        20        19        24        23
        20        19        24        59        20        21        22        23
        20        21        22        57        21        20        19        24
        21        22        23        24        21        22        23        58
        22        21        20        55        22        23        24        59
        23        22        21        56        24        19        18        53
        24        19        18        54        24        19        20        55
        24        23        22        57        25        26        27        28
        25        26        29        30        25        26        29        31
        25        26        29        62        25        32        34        35
        25        32        34        36        25        32        34        69
        26        25        32        33        26        25        32        34
        26        27        16        51        26        29        30        63
        26        29        30        64        26        29        30        65
        26        29        31        66        26        29        31        67
        26        29        31        68        27        16        17        52
        27        26        25        32        27        26        25        60
        27        26        29        30        27        26        29        31
        27        26        29        62        28        27        16        51
        28        27        26        29        28        27        26        61
        29        26        25        32        29        26        25        60
        30        29        26        61        30        29        31        66
        30        29        31        67        30        29        31        68
        31        29        26        61        31        29        30        63
        31        29        30        64        31        29        30        65
        32        25        26        61        32        34        35        70
        32        34        35        71        32        34        36        72
        32        34        36        73        33        32        25        60
        33        32        34        35        33        32        34        36
        33        32        34        69        34        32        25        60
        34        36         1        38        35         7         6        43
        35        34        36        72        35        34        36        73
        36         1        38        37        36         1        38        39
        36         1        38        40        36        34        35        70
        36        34        35        71        37        38        39        77
        37        38        39        78        37        38        39        79
        37        38        40        80        37        38        40        81
        37        38        40        82        38         1        36        72
        38         1        36        73        39        38        37        74
        39        38        37        75        39        38        37        76
        39        38        40        80        39        38        40        81
        39        38        40        82        40        38        37        74
        40        38        37        75        40        38        37        76
        40        38        39        77        40        38        39        78
        40        38        39        79        41         4         5        42
        42         5         6        43        44        10        11        45
        45        11        12        46        46        12        13        47
        48        14        15        49        48        14        15        50
        49        15        17        52        50        15        17        52
        51        16        17        52        52        17        18        53
        52        17        18        54        55        20        21        56
        56        21        22        57        57        22        23        58
        58        23        24        59        60        25        26        61
        61        26        29        62        62        29        30        63
        62        29        30        64        62        29        30        65
        62        29        31        66        62        29        31        67
        62        29        31        68        69        34        35        70
        69        34        35        71        69        34        36        72
        69        34        36        73

         2 !NIMPHI: impropers
        27        26        16        28        32        34        25        33

         0 !NDON: donors


         0 !NACC: acceptors


         0 !NNB

         0         0         0         0         0         0         0         0
         0         0         0         0         0         0         0         0
         0         0         0         0         0         0         0         0
         0         0         0         0         0         0         0         0
         0         0         0         0         0         0         0         0
         0         0         0         0         0         0         0         0
         0         0         0         0         0         0         0         0
         0         0         0         0         0         0         0         0
         0         0         0         0         0         0         0         0
         0         0         0         0         0         0         0         0
         0         0

         1         0 !NGRP NST2
         0         1         0

         0         0 !NUMLP NUMLPH

         0 !NCRTERM: cross-terms

