* GENERATE LIGAND
*  DATE:     1/24/26      7:59:28      CREATED BY USER: charmm-gui
*
        82  EXT
         1         1  LIG       S1              7.0717039158       21.2632783430        5.8044107115  LIG       1               0.0000000000
         2         1  LIG       O1              8.2191350116       22.1272567784        5.6509545580  LIG       1               0.0000000000
         3         1  LIG       O2              5.7662632246       21.7494909111        5.4770834232  LIG       1               0.0000000000
         4         1  LIG       C1             12.1364307797       20.6313349082        2.3799827179  LIG       1               0.0000000000
         5         1  LIG       C2             11.1503600239       21.4097981834        2.9904711379  LIG       1               0.0000000000
         6         1  LIG       C3              9.8208141463       20.9806279248        2.9924047316  LIG       1               0.0000000000
         7         1  LIG       C4              9.4533203355       19.7539640725        2.4111936968  LIG       1               0.0000000000
         8         1  LIG       C5             10.4456863733       18.9685985050        1.7807913208  LIG       1               0.0000000000
         9         1  LIG       C6             11.7977215358       19.4171821816        1.7679830195  LIG       1               0.0000000000
        10         1  LIG       C7             12.7845090737       18.6452308100        1.1369442050  LIG       1               0.0000000000
        11         1  LIG       C8             12.4471789804       17.4360268521        0.5174032473  LIG       1               0.0000000000
        12         1  LIG       C9             11.1233298320       16.9902562092        0.5248006936  LIG       1               0.0000000000
        13         1  LIG       C10            10.1299383228       17.7496776502        1.1498727640  LIG       1               0.0000000000
        14         1  LIG       O3              2.5628443395       16.5375928409       -0.6303277702  LIG       1               0.0000000000
        15         1  LIG       C11             1.9607398257       17.7972563436       -0.9269367211  LIG       1               0.0000000000
        16         1  LIG       N1              3.2797400187       18.9901566682        0.8045332076  LIG       1               0.0000000000
        17         1  LIG       CA1             2.9231565169       18.9663185720       -0.5984466719  LIG       1               0.0000000000
        18         1  LIG       CB1             4.1716624272       18.9113237063       -1.5158831709  LIG       1               0.0000000000
        19         1  LIG       CG              4.9699547910       20.1890932993       -1.4684969688  LIG       1               0.0000000000
        20         1  LIG       CD1             6.2974167202       20.1777266267       -1.0139600672  LIG       1               0.0000000000
        21         1  LIG       CE1             7.0553922613       21.3557517373       -1.0066873491  LIG       1               0.0000000000
        22         1  LIG       CZ              6.4893792259       22.5532109936       -1.4645068388  LIG       1               0.0000000000
        23         1  LIG       CE2             5.1672955649       22.5719946591       -1.9280175492  LIG       1               0.0000000000
        24         1  LIG       CD2             4.4116268117       21.3923534590       -1.9325222629  LIG       1               0.0000000000
        25         1  LIG       N2              4.5527419404       20.1723340151        3.3477241609  LIG       1               0.0000000000
        26         1  LIG       CA2             3.1923325373       19.6770043148        3.1683364647  LIG       1               0.0000000000
        27         1  LIG       C12             2.7554368963       19.8390146489        1.7119106989  LIG       1               0.0000000000
        28         1  LIG       O4              1.9503872117       20.7097868979        1.3760957639  LIG       1               0.0000000000
        29         1  LIG       CB2             2.1692536381       20.3370235182        4.1090793305  LIG       1               0.0000000000
        30         1  LIG       CG2             0.8443144911       19.5451194599        4.0724498870  LIG       1               0.0000000000
        31         1  LIG       CG1             2.6883907852       20.3695161673        5.5605261121  LIG       1               0.0000000000
        32         1  LIG       C25             5.6407555738       19.4171250415        3.0902363664  LIG       1               0.0000000000
        33         1  LIG       O5              5.5172585929       18.2700226541        2.6698270356  LIG       1               0.0000000000
        34         1  LIG       C26             7.0114843829       20.0104467165        3.3451939594  LIG       1               0.0000000000
        35         1  LIG       C27             8.0211605078       19.2568265428        2.4273107490  LIG       1               0.0000000000
        36         1  LIG       C28             7.3684017738       19.7859473474        4.8348192014  LIG       1               0.0000000000
        37         1  LIG       C29             8.4032492055       19.9273722508        7.7807748662  LIG       1               0.0000000000
        38         1  LIG       C30             7.0625093795       20.6381922860        7.5069970203  LIG       1               0.0000000000
        39         1  LIG       C31             5.8918470394       19.6517029678        7.7131752445  LIG       1               0.0000000000
        40         1  LIG       C32             6.8895834249       21.8637054472        8.4161983105  LIG       1               0.0000000000
        41         1  LIG       H1             13.1584854503       20.9827610259        2.3765484098  LIG       1               0.0000000000
        42         1  LIG       H2             11.4112137272       22.3484229759        3.4602786471  LIG       1               0.0000000000
        43         1  LIG       H3              9.0881086106       21.6183024785        3.4572022874  LIG       1               0.0000000000
        44         1  LIG       H4             13.8117775827       18.9791530598        1.1189596688  LIG       1               0.0000000000
        45         1  LIG       H5             13.2090240566       16.8461204931        0.0292666536  LIG       1               0.0000000000
        46         1  LIG       H6             10.8601226099       16.0582230658        0.0448715369  LIG       1               0.0000000000
        47         1  LIG       H7              9.1218552544       17.3641790569        1.1192106819  LIG       1               0.0000000000
        48         1  LIG       H8              1.9297452967       15.8544229374       -0.8682512073  LIG       1               0.0000000000
        49         1  LIG       H11             1.0284286445       17.9197754983       -0.3320869472  LIG       1               0.0000000000
        50         1  LIG       H12             1.7012482049       17.8394205403       -2.0081767667  LIG       1               0.0000000000
        51         1  LIG       H9              3.9612933636       18.3188017407        1.0945524773  LIG       1               0.0000000000
        52         1  LIG       HA1             2.3602818793       19.8973410035       -0.8570991561  LIG       1               0.0000000000
        53         1  LIG       HB1             3.8565560861       18.7608143106       -2.5698917240  LIG       1               0.0000000000
        54         1  LIG       HB2             4.8152943505       18.0549984239       -1.2199080752  LIG       1               0.0000000000
        55         1  LIG       HD1             6.7342604079       19.2510131337       -0.6752905251  LIG       1               0.0000000000
        56         1  LIG       HE1             8.0768647236       21.3383255167       -0.6547710014  LIG       1               0.0000000000
        57         1  LIG       HZ              7.0733334062       23.4619077704       -1.4640537824  LIG       1               0.0000000000
        58         1  LIG       HE2             4.7303970341       23.4938568756       -2.2839547344  LIG       1               0.0000000000
        59         1  LIG       HD2             3.3948524223       21.4090889918       -2.2951910708  LIG       1               0.0000000000
        60         1  LIG       H10             4.6490438079       21.0813813168        3.7513804108  LIG       1               0.0000000000
        61         1  LIG       HA2             3.1732968550       18.5858099100        3.4018817512  LIG       1               0.0000000000
        62         1  LIG       HB              1.9818435841       21.3916390144        3.7971621912  LIG       1               0.0000000000
        63         1  LIG       HG21            1.0095825335       18.4978975842        4.4024285456  LIG       1               0.0000000000
        64         1  LIG       HG22            0.4065995461       19.5344109232        3.0528967272  LIG       1               0.0000000000
        65         1  LIG       HG23            0.1052014470       20.0144156072        4.7556904324  LIG       1               0.0000000000
        66         1  LIG       HG11            3.5116967583       21.1006381017        5.6702388064  LIG       1               0.0000000000
        67         1  LIG       HG12            3.0425372754       19.3686645701        5.8819713325  LIG       1               0.0000000000
        68         1  LIG       HG13            1.8742070291       20.6921292619        6.2446856398  LIG       1               0.0000000000
        69         1  LIG       H29             6.9815628470       21.0833444314        3.0692463772  LIG       1               0.0000000000
        70         1  LIG       H30             8.0540836759       18.1994223057        2.7797474270  LIG       1               0.0000000000
        71         1  LIG       H31             7.6709481875       19.2742445097        1.3748131902  LIG       1               0.0000000000
        72         1  LIG       H32             6.8201677380       18.9306862318        5.2704479246  LIG       1               0.0000000000
        73         1  LIG       H33             8.4532182073       19.5832095387        4.9402882763  LIG       1               0.0000000000
        74         1  LIG       H34             9.2550511116       20.5924131601        7.5204576687  LIG       1               0.0000000000
        75         1  LIG       H35             8.4927254641       18.9932438734        7.1892662176  LIG       1               0.0000000000
        76         1  LIG       H36             8.4805184835       19.6646456180        8.8551770228  LIG       1               0.0000000000
        77         1  LIG       H37             6.0446326737       18.7073046706        7.1552001647  LIG       1               0.0000000000
        78         1  LIG       H38             4.9369737162       20.1092904000        7.3811156441  LIG       1               0.0000000000
        79         1  LIG       H39             5.8014665568       19.3938860997        8.7878961515  LIG       1               0.0000000000
        80         1  LIG       H40             5.9324545087       22.3787079557        8.1841617330  LIG       1               0.0000000000
        81         1  LIG       H41             7.7223115036       22.5818290598        8.2574213198  LIG       1               0.0000000000
        82         1  LIG       H42             6.8809059030       21.5531305891        9.4803180684  LIG       1               0.0000000000
