* GENERATED BY CHARMM-GUI (HTTP://WWW.CHARMM-GUI.ORG)
*
        40  EXT
         1         1  LIG       S1              7.0600000000       21.2470000000        5.7930000000  LIG       1               0.0000000000
         2         1  LIG       O1              8.1230000000       22.1520000000        5.6300000000  LIG       1               0.0000000000
         3         1  LIG       O2              5.7770000000       21.7370000000        5.4830000000  LIG       1               0.0000000000
         4         1  LIG       C1             12.1110000000       20.6540000000        2.3960000000  LIG       1               0.0000000000
         5         1  LIG       C2             11.1470000000       21.4080000000        3.0100000000  LIG       1               0.0000000000
         6         1  LIG       C3              9.8040000000       20.9610000000        3.0480000000  LIG       1               0.0000000000
         7         1  LIG       C4              9.4330000000       19.7650000000        2.4760000000  LIG       1               0.0000000000
         8         1  LIG       C5             10.4230000000       18.9690000000        1.8080000000  LIG       1               0.0000000000
         9         1  LIG       C6             11.7690000000       19.4190000000        1.7810000000  LIG       1               0.0000000000
        10         1  LIG       C7             12.7600000000       18.6310000000        1.1320000000  LIG       1               0.0000000000
        11         1  LIG       C8             12.4250000000       17.4460000000        0.5260000000  LIG       1               0.0000000000
        12         1  LIG       C9             11.0820000000       17.0000000000        0.5400000000  LIG       1               0.0000000000
        13         1  LIG       C10            10.1080000000       17.7410000000        1.1620000000  LIG       1               0.0000000000
        14         1  LIG       O3              2.5530000000       16.5320000000       -0.6410000000  LIG       1               0.0000000000
        15         1  LIG       C11             2.0000000000       17.7960000000       -0.9340000000  LIG       1               0.0000000000
        16         1  LIG       N1              3.3090000000       18.9750000000        0.8180000000  LIG       1               0.0000000000
        17         1  LIG       CA1             2.9390000000       18.9720000000       -0.5750000000  LIG       1               0.0000000000
        18         1  LIG       CB1             4.1570000000       18.9340000000       -1.5190000000  LIG       1               0.0000000000
        19         1  LIG       CG              4.9550000000       20.1870000000       -1.4870000000  LIG       1               0.0000000000
        20         1  LIG       CD1             6.2770000000       20.1730000000       -1.0290000000  LIG       1               0.0000000000
        21         1  LIG       CE1             7.0330000000       21.3440000000       -1.0240000000  LIG       1               0.0000000000
        22         1  LIG       CZ              6.4760000000       22.5400000000       -1.4770000000  LIG       1               0.0000000000
        23         1  LIG       CE2             5.1590000000       22.5590000000       -1.9360000000  LIG       1               0.0000000000
        24         1  LIG       CD2             4.4020000000       21.3910000000       -1.9430000000  LIG       1               0.0000000000
        25         1  LIG       N2              4.5530000000       20.1610000000        3.3670000000  LIG       1               0.0000000000
        26         1  LIG       CA2             3.2120000000       19.6570000000        3.2040000000  LIG       1               0.0000000000
        27         1  LIG       C12             2.7470000000       19.8340000000        1.7310000000  LIG       1               0.0000000000
        28         1  LIG       O4              1.9230000000       20.7090000000        1.4030000000  LIG       1               0.0000000000
        29         1  LIG       CB2             2.1830000000       20.3280000000        4.1410000000  LIG       1               0.0000000000
        30         1  LIG       CG2             0.8800000000       19.5560000000        4.0780000000  LIG       1               0.0000000000
        31         1  LIG       CG1             2.6810000000       20.3940000000        5.5690000000  LIG       1               0.0000000000
        32         1  LIG       C25             5.6560000000       19.3820000000        3.1220000000  LIG       1               0.0000000000
        33         1  LIG       O5              5.5390000000       18.2110000000        2.6980000000  LIG       1               0.0000000000
        34         1  LIG       C26             7.0420000000       19.9910000000        3.3850000000  LIG       1               0.0000000000
        35         1  LIG       C27             8.0360000000       19.2530000000        2.4960000000  LIG       1               0.0000000000
        36         1  LIG       C28             7.3860000000       19.8480000000        4.8610000000  LIG       1               0.0000000000
        37         1  LIG       C29             8.3840000000       19.9280000000        7.7390000000  LIG       1               0.0000000000
        38         1  LIG       C30             7.0690000000       20.6090000000        7.4140000000  LIG       1               0.0000000000
        39         1  LIG       C31             5.9200000000       19.6470000000        7.6520000000  LIG       1               0.0000000000
        40         1  LIG       C32             6.8960000000       21.8090000000        8.3390000000  LIG       1               0.0000000000
