;;
;; Generated by CHARMM-GUI (http://www.charmm-gui.org) v1.7
;;
;; psf2itp_mol.py
;;
;; Correspondance:
;; jul316@lehigh.edu or wonpil@lehigh.edu
;;
;; GROMACS topology file for LIG
;;


[ moleculetype ]
; name	nrexcl
LIG	     3

[ atoms ]
; nr	type	resnr	residu	atom	cgnr	charge	mass
     1      SG3O2      1      LIG     S1      1      0.122    32.0600   ; qtot  0.122
     2      OG2P1      1      LIG     O1      2     -0.369    15.9994   ; qtot -0.247
     3      OG2P1      1      LIG     O2      3     -0.369    15.9994   ; qtot -0.616
     4     CG2R61      1      LIG     C1      4     -0.119    12.0110   ; qtot -0.735
     5     CG2R61      1      LIG     C2      5     -0.109    12.0110   ; qtot -0.844
     6     CG2R61      1      LIG     C3      6     -0.120    12.0110   ; qtot -0.964
     7     CG2R61      1      LIG     C4      7     -0.021    12.0110   ; qtot -0.985
     8     CG2R61      1      LIG     C5      8     -0.011    12.0110   ; qtot -0.996
     9     CG2R61      1      LIG     C6      9      0.004    12.0110   ; qtot -0.992
    10     CG2R61      1      LIG     C7     10     -0.119    12.0110   ; qtot -1.111
    11     CG2R61      1      LIG     C8     11     -0.113    12.0110   ; qtot -1.224
    12     CG2R61      1      LIG     C9     12     -0.113    12.0110   ; qtot -1.337
    13     CG2R61      1      LIG    C10     13     -0.115    12.0110   ; qtot -1.452
    14      OG311      1      LIG     O3     14     -0.645    15.9994   ; qtot -2.097
    15      CG321      1      LIG    C11     15      0.074    12.0110   ; qtot -2.023
    16      NG2S1      1      LIG     N1     16     -0.432    14.0070   ; qtot -2.455
    17      CG311      1      LIG    CA1     17     -0.055    12.0110   ; qtot -2.510
    18      CG321      1      LIG    CB1     18     -0.139    12.0110   ; qtot -2.649
    19     CG2R61      1      LIG     CG     19     -0.019    12.0110   ; qtot -2.668
    20     CG2R61      1      LIG    CD1     20     -0.123    12.0110   ; qtot -2.791
    21     CG2R61      1      LIG    CE1     21     -0.112    12.0110   ; qtot -2.903
    22     CG2R61      1      LIG     CZ     22     -0.116    12.0110   ; qtot -3.019
    23     CG2R61      1      LIG    CE2     23     -0.112    12.0110   ; qtot -3.131
    24     CG2R61      1      LIG    CD2     24     -0.123    12.0110   ; qtot -3.254
    25      NG2S1      1      LIG     N2     25     -0.449    14.0070   ; qtot -3.703
    26      CG311      1      LIG    CA2     26      0.070    12.0110   ; qtot -3.633
    27      CG2O1      1      LIG    C12     27      0.538    12.0110   ; qtot -3.095
    28      OG2D1      1      LIG     O4     28     -0.510    15.9994   ; qtot -3.605
    29      CG311      1      LIG    CB2     29     -0.078    12.0110   ; qtot -3.683
    30      CG331      1      LIG    CG2     30     -0.269    12.0110   ; qtot -3.952
    31      CG331      1      LIG    CG1     31     -0.269    12.0110   ; qtot -4.221
    32      CG2O1      1      LIG    C25     32      0.487    12.0110   ; qtot -3.734
    33      OG2D1      1      LIG     O5     33     -0.508    15.9994   ; qtot -4.242
    34      CG311      1      LIG    C26     34      0.083    12.0110   ; qtot -4.159
    35      CG321      1      LIG    C27     35     -0.215    12.0110   ; qtot -4.374
    36      CG321      1      LIG    C28     36     -0.006    12.0110   ; qtot -4.380
    37      CG331      1      LIG    C29     37     -0.214    12.0110   ; qtot -4.594
    38      CG301      1      LIG    C30     38      0.198    12.0110   ; qtot -4.396
    39      CG331      1      LIG    C31     39     -0.214    12.0110   ; qtot -4.610
    40      CG331      1      LIG    C32     40     -0.214    12.0110   ; qtot -4.824
    41       HGP1      1      LIG     H3     41      0.417     1.0080   ; qtot -4.407
    42       HGP1      1      LIG    H11     42      0.316     1.0080   ; qtot -4.091
    43       HGP1      1      LIG    H12     43      0.269     1.0080   ; qtot -3.822
    44      HGR61      1      LIG     H4     44      0.116     1.0080   ; qtot -3.706
    45      HGR61      1      LIG     H5     45      0.116     1.0080   ; qtot -3.590
    46      HGR61      1      LIG     H6     46      0.116     1.0080   ; qtot -3.474
    47      HGR61      1      LIG     H7     47      0.116     1.0080   ; qtot -3.358
    48      HGR61      1      LIG     H8     48      0.116     1.0080   ; qtot -3.242
    49      HGR61      1      LIG     H9     49      0.116     1.0080   ; qtot -3.126
    50      HGR61      1      LIG    H10     50      0.116     1.0080   ; qtot -3.010
    51       HGA2      1      LIG     H1     51      0.090     1.0080   ; qtot -2.920
    52       HGA2      1      LIG     H2     52      0.090     1.0080   ; qtot -2.830
    53       HGA1      1      LIG    HA1     53      0.090     1.0080   ; qtot -2.740
    54       HGA2      1      LIG    HB1     54      0.090     1.0080   ; qtot -2.650
    55       HGA2      1      LIG    HB2     55      0.090     1.0080   ; qtot -2.560
    56      HGR61      1      LIG    HD1     56      0.116     1.0080   ; qtot -2.444
    57      HGR61      1      LIG    HE1     57      0.116     1.0080   ; qtot -2.328
    58      HGR61      1      LIG     HZ     58      0.116     1.0080   ; qtot -2.212
    59      HGR61      1      LIG    HE2     59      0.116     1.0080   ; qtot -2.096
    60      HGR61      1      LIG    HD2     60      0.116     1.0080   ; qtot -1.980
    61       HGA1      1      LIG    HA2     61      0.090     1.0080   ; qtot -1.890
    62       HGA1      1      LIG     HB     62      0.090     1.0080   ; qtot -1.800
    63       HGA3      1      LIG   HG21     63      0.090     1.0080   ; qtot -1.710
    64       HGA3      1      LIG   HG22     64      0.090     1.0080   ; qtot -1.620
    65       HGA3      1      LIG   HG23     65      0.090     1.0080   ; qtot -1.530
    66       HGA3      1      LIG   HG11     66      0.090     1.0080   ; qtot -1.440
    67       HGA3      1      LIG   HG12     67      0.090     1.0080   ; qtot -1.350
    68       HGA3      1      LIG   HG13     68      0.090     1.0080   ; qtot -1.260
    69       HGA1      1      LIG    H29     69      0.090     1.0080   ; qtot -1.170
    70       HGA2      1      LIG    H30     70      0.090     1.0080   ; qtot -1.080
    71       HGA2      1      LIG    H31     71      0.090     1.0080   ; qtot -0.990
    72       HGA2      1      LIG    H32     72      0.090     1.0080   ; qtot -0.900
    73       HGA2      1      LIG    H33     73      0.090     1.0080   ; qtot -0.810
    74       HGA3      1      LIG    H34     74      0.090     1.0080   ; qtot -0.720
    75       HGA3      1      LIG    H35     75      0.090     1.0080   ; qtot -0.630
    76       HGA3      1      LIG    H36     76      0.090     1.0080   ; qtot -0.540
    77       HGA3      1      LIG    H37     77      0.090     1.0080   ; qtot -0.450
    78       HGA3      1      LIG    H38     78      0.090     1.0080   ; qtot -0.360
    79       HGA3      1      LIG    H39     79      0.090     1.0080   ; qtot -0.270
    80       HGA3      1      LIG    H40     80      0.090     1.0080   ; qtot -0.180
    81       HGA3      1      LIG    H41     81      0.090     1.0080   ; qtot -0.090
    82       HGA3      1      LIG    H42     82      0.090     1.0080   ; qtot  0.000

[ bonds ]
; ai	aj	funct	b0	Kb
    1     2     1
    1     3     1
    1    36     1
    1    38     1
    4     5     1
    4     9     1
    4    44     1
    5     6     1
    5    45     1
    6     7     1
    6    46     1
    7     8     1
    7    35     1
    8     9     1
    8    13     1
    9    10     1
   10    11     1
   10    47     1
   11    12     1
   11    48     1
   12    13     1
   12    49     1
   13    50     1
   14    15     1
   14    41     1
   15    17     1
   15    51     1
   15    52     1
   16    17     1
   16    27     1
   16    42     1
   17    18     1
   17    53     1
   18    19     1
   18    54     1
   18    55     1
   19    20     1
   19    24     1
   20    21     1
   20    56     1
   21    22     1
   21    57     1
   22    23     1
   22    58     1
   23    24     1
   23    59     1
   24    60     1
   25    26     1
   25    32     1
   25    43     1
   26    27     1
   26    29     1
   26    61     1
   27    28     1
   29    30     1
   29    31     1
   29    62     1
   30    63     1
   30    64     1
   30    65     1
   31    66     1
   31    67     1
   31    68     1
   32    33     1
   32    34     1
   34    35     1
   34    36     1
   34    69     1
   35    70     1
   35    71     1
   36    72     1
   36    73     1
   37    38     1
   37    74     1
   37    75     1
   37    76     1
   38    39     1
   38    40     1
   39    77     1
   39    78     1
   39    79     1
   40    80     1
   40    81     1
   40    82     1

[ pairs ]
; ai	aj	funct	c6	c12
    1    32     1 
    1    35     1 
    1    69     1 
    1    74     1 
    1    75     1 
    1    76     1 
    1    77     1 
    1    78     1 
    1    79     1 
    1    80     1 
    1    81     1 
    1    82     1 
    2    34     1 
    2    37     1 
    2    39     1 
    2    40     1 
    2    72     1 
    2    73     1 
    3    34     1 
    3    37     1 
    3    39     1 
    3    40     1 
    3    72     1 
    3    73     1 
    4     7     1 
    4    11     1 
    4    13     1 
    4    46     1 
    4    47     1 
    5     8     1 
    5    10     1 
    5    35     1 
    6     9     1 
    6    13     1 
    6    34     1 
    6    44     1 
    6    70     1 
    6    71     1 
    7    10     1 
    7    12     1 
    7    32     1 
    7    36     1 
    7    45     1 
    7    50     1 
    7    69     1 
    8    11     1 
    8    34     1 
    8    44     1 
    8    46     1 
    8    47     1 
    8    49     1 
    8    70     1 
    8    71     1 
    9    12     1 
    9    35     1 
    9    45     1 
    9    48     1 
    9    50     1 
   10    13     1 
   10    44     1 
   10    49     1 
   11    50     1 
   12    47     1 
   13    35     1 
   13    48     1 
   14    16     1 
   14    18     1 
   14    53     1 
   15    19     1 
   15    27     1 
   15    42     1 
   15    54     1 
   15    55     1 
   16    19     1 
   16    25     1 
   16    29     1 
   16    51     1 
   16    52     1 
   16    54     1 
   16    55     1 
   16    61     1 
   17    20     1 
   17    24     1 
   17    26     1 
   17    28     1 
   17    41     1 
   18    21     1 
   18    23     1 
   18    27     1 
   18    42     1 
   18    51     1 
   18    52     1 
   18    56     1 
   18    60     1 
   19    22     1 
   19    53     1 
   19    57     1 
   19    59     1 
   20    23     1 
   20    54     1 
   20    55     1 
   20    58     1 
   20    60     1 
   21    24     1 
   21    59     1 
   22    56     1 
   22    60     1 
   23    57     1 
   24    54     1 
   24    55     1 
   24    56     1 
   24    58     1 
   25    28     1 
   25    30     1 
   25    31     1 
   25    35     1 
   25    36     1 
   25    62     1 
   25    69     1 
   26    33     1 
   26    34     1 
   26    42     1 
   26    63     1 
   26    64     1 
   26    65     1 
   26    66     1 
   26    67     1 
   26    68     1 
   27    30     1 
   27    31     1 
   27    32     1 
   27    43     1 
   27    53     1 
   27    62     1 
   28    29     1 
   28    42     1 
   28    61     1 
   29    32     1 
   29    43     1 
   30    61     1 
   30    66     1 
   30    67     1 
   30    68     1 
   31    61     1 
   31    63     1 
   31    64     1 
   31    65     1 
   32    61     1 
   32    70     1 
   32    71     1 
   32    72     1 
   32    73     1 
   33    35     1 
   33    36     1 
   33    43     1 
   33    69     1 
   34    38     1 
   34    43     1 
   35    46     1 
   35    72     1 
   35    73     1 
   36    37     1 
   36    39     1 
   36    40     1 
   36    70     1 
   36    71     1 
   37    77     1 
   37    78     1 
   37    79     1 
   37    80     1 
   37    81     1 
   37    82     1 
   38    72     1 
   38    73     1 
   39    74     1 
   39    75     1 
   39    76     1 
   39    80     1 
   39    81     1 
   39    82     1 
   40    74     1 
   40    75     1 
   40    76     1 
   40    77     1 
   40    78     1 
   40    79     1 
   41    51     1 
   41    52     1 
   42    53     1 
   43    61     1 
   44    45     1 
   45    46     1 
   47    48     1 
   48    49     1 
   49    50     1 
   51    53     1 
   52    53     1 
   53    54     1 
   53    55     1 
   56    57     1 
   57    58     1 
   58    59     1 
   59    60     1 
   61    62     1 
   62    63     1 
   62    64     1 
   62    65     1 
   62    66     1 
   62    67     1 
   62    68     1 
   69    70     1 
   69    71     1 
   69    72     1 
   69    73     1 

[ angles ] 
; ai	aj	ak	funct	th0	cth	S0	Kub
    2     1     3     5
    2     1    36     5
    2     1    38     5
    3     1    36     5
    3     1    38     5
   36     1    38     5
    5     4     9     5
    5     4    44     5
    9     4    44     5
    4     5     6     5
    4     5    45     5
    6     5    45     5
    5     6     7     5
    5     6    46     5
    7     6    46     5
    6     7     8     5
    6     7    35     5
    8     7    35     5
    7     8     9     5
    7     8    13     5
    9     8    13     5
    4     9     8     5
    4     9    10     5
    8     9    10     5
    9    10    11     5
    9    10    47     5
   11    10    47     5
   10    11    12     5
   10    11    48     5
   12    11    48     5
   11    12    13     5
   11    12    49     5
   13    12    49     5
    8    13    12     5
    8    13    50     5
   12    13    50     5
   15    14    41     5
   14    15    17     5
   14    15    51     5
   14    15    52     5
   17    15    51     5
   17    15    52     5
   51    15    52     5
   17    16    27     5
   17    16    42     5
   27    16    42     5
   15    17    16     5
   15    17    18     5
   15    17    53     5
   16    17    18     5
   16    17    53     5
   18    17    53     5
   17    18    19     5
   17    18    54     5
   17    18    55     5
   19    18    54     5
   19    18    55     5
   54    18    55     5
   18    19    20     5
   18    19    24     5
   20    19    24     5
   19    20    21     5
   19    20    56     5
   21    20    56     5
   20    21    22     5
   20    21    57     5
   22    21    57     5
   21    22    23     5
   21    22    58     5
   23    22    58     5
   22    23    24     5
   22    23    59     5
   24    23    59     5
   19    24    23     5
   19    24    60     5
   23    24    60     5
   26    25    32     5
   26    25    43     5
   32    25    43     5
   25    26    27     5
   25    26    29     5
   25    26    61     5
   27    26    29     5
   27    26    61     5
   29    26    61     5
   16    27    26     5
   16    27    28     5
   26    27    28     5
   26    29    30     5
   26    29    31     5
   26    29    62     5
   30    29    31     5
   30    29    62     5
   31    29    62     5
   29    30    63     5
   29    30    64     5
   29    30    65     5
   63    30    64     5
   63    30    65     5
   64    30    65     5
   29    31    66     5
   29    31    67     5
   29    31    68     5
   66    31    67     5
   66    31    68     5
   67    31    68     5
   25    32    33     5
   25    32    34     5
   33    32    34     5
   32    34    35     5
   32    34    36     5
   32    34    69     5
   35    34    36     5
   35    34    69     5
   36    34    69     5
    7    35    34     5
    7    35    70     5
    7    35    71     5
   34    35    70     5
   34    35    71     5
   70    35    71     5
    1    36    34     5
    1    36    72     5
    1    36    73     5
   34    36    72     5
   34    36    73     5
   72    36    73     5
   38    37    74     5
   38    37    75     5
   38    37    76     5
   74    37    75     5
   74    37    76     5
   75    37    76     5
    1    38    37     5
    1    38    39     5
    1    38    40     5
   37    38    39     5
   37    38    40     5
   39    38    40     5
   38    39    77     5
   38    39    78     5
   38    39    79     5
   77    39    78     5
   77    39    79     5
   78    39    79     5
   38    40    80     5
   38    40    81     5
   38    40    82     5
   80    40    81     5
   80    40    82     5
   81    40    82     5

[ dihedrals ]
; ai	aj	ak	al	funct	phi0	cp	mult
    2     1    36    34     9
    2     1    36    72     9
    2     1    36    73     9
    3     1    36    34     9
    3     1    36    72     9
    3     1    36    73     9
   38     1    36    72     9
   38     1    36    73     9
    2     1    38    37     9
    2     1    38    39     9
    2     1    38    40     9
    3     1    38    37     9
    3     1    38    39     9
    3     1    38    40     9
   36     1    38    37     9
   36     1    38    39     9
   36     1    38    40     9
    9     4     5    45     9
   44     4     5    45     9
    5     4     9     8     9
    5     4     9    10     9
    6     5     4     9     9
    6     5     4    44     9
    4     5     6     7     9
    4     5     6    46     9
   45     5     6    46     9
    7     6     5    45     9
    5     6     7     8     9
    5     6     7    35     9
    8     7     6    46     9
   35     7     6    46     9
    6     7     8     9     9
    6     7     8    13     9
    6     7    35    34     9
    6     7    35    70     9
    6     7    35    71     9
    8     7    35    34     9
    8     7    35    70     9
    8     7    35    71     9
    9     8     7    35     9
   13     8     7    35     9
    7     8     9    10     9
    7     8    13    12     9
    7     8    13    50     9
    9     8    13    12     9
    9     8    13    50     9
    8     9     4    44     9
   10     9     4    44     9
    4     9     8     7     9
    4     9     8    13     9
   10     9     8    13     9
    4     9    10    11     9
    4     9    10    47     9
    8     9    10    11     9
    8     9    10    47     9
    9    10    11    12     9
    9    10    11    48     9
   47    10    11    48     9
   12    11    10    47     9
   10    11    12    13     9
   10    11    12    49     9
   48    11    12    49     9
   13    12    11    48     9
   11    12    13    50     9
   49    12    13    50     9
    8    13    12    11     9
    8    13    12    49     9
   41    14    15    51     9
   41    14    15    52     9
   17    15    14    41     9
   14    15    17    16     9
   14    15    17    18     9
   14    15    17    53     9
   51    15    17    53     9
   52    15    17    53     9
   27    16    17    53     9
   42    16    17    53     9
   17    16    27    26     9
   17    16    27    28     9
   16    17    15    51     9
   16    17    15    52     9
   18    17    15    51     9
   18    17    15    52     9
   15    17    16    27     9
   15    17    16    42     9
   18    17    16    27     9
   18    17    16    42     9
   15    17    18    19     9
   15    17    18    54     9
   15    17    18    55     9
   16    17    18    19     9
   16    17    18    54     9
   16    17    18    55     9
   53    17    18    54     9
   53    17    18    55     9
   19    18    17    53     9
   17    18    19    20     9
   17    18    19    24     9
   20    19    18    54     9
   20    19    18    55     9
   24    19    18    54     9
   24    19    18    55     9
   18    19    20    21     9
   18    19    20    56     9
   24    19    20    56     9
   18    19    24    23     9
   18    19    24    60     9
   20    19    24    23     9
   20    19    24    60     9
   21    20    19    24     9
   19    20    21    22     9
   19    20    21    57     9
   56    20    21    57     9
   22    21    20    56     9
   20    21    22    23     9
   20    21    22    58     9
   57    21    22    58     9
   23    22    21    57     9
   21    22    23    24     9
   21    22    23    59     9
   58    22    23    59     9
   24    23    22    58     9
   22    23    24    60     9
   59    23    24    60     9
   19    24    23    22     9
   19    24    23    59     9
   32    25    26    61     9
   43    25    26    61     9
   26    25    32    33     9
   26    25    32    34     9
   27    26    25    32     9
   27    26    25    43     9
   29    26    25    32     9
   29    26    25    43     9
   25    26    27    28     9
   25    26    29    30     9
   25    26    29    31     9
   25    26    29    62     9
   27    26    29    30     9
   27    26    29    31     9
   27    26    29    62     9
   61    26    29    62     9
   26    27    16    42     9
   28    27    16    42     9
   16    27    26    25     9
   16    27    26    29     9
   16    27    26    61     9
   28    27    26    29     9
   28    27    26    61     9
   30    29    26    61     9
   31    29    26    61     9
   26    29    30    63     9
   26    29    30    64     9
   26    29    30    65     9
   31    29    30    63     9
   31    29    30    64     9
   31    29    30    65     9
   62    29    30    63     9
   62    29    30    64     9
   62    29    30    65     9
   26    29    31    66     9
   26    29    31    67     9
   26    29    31    68     9
   30    29    31    66     9
   30    29    31    67     9
   30    29    31    68     9
   62    29    31    66     9
   62    29    31    67     9
   62    29    31    68     9
   33    32    25    43     9
   34    32    25    43     9
   25    32    34    35     9
   25    32    34    36     9
   25    32    34    69     9
   33    32    34    35     9
   33    32    34    36     9
   33    32    34    69     9
   32    34    35    70     9
   32    34    35    71     9
   36    34    35    70     9
   36    34    35    71     9
   69    34    35    70     9
   69    34    35    71     9
   32    34    36    72     9
   32    34    36    73     9
   35    34    36    72     9
   35    34    36    73     9
   69    34    36    72     9
   69    34    36    73     9
    7    35    34    32     9
    7    35    34    36     9
    7    35    34    69     9
   34    36     1    38     9
    1    36    34    32     9
    1    36    34    35     9
    1    36    34    69     9
    1    38    37    74     9
    1    38    37    75     9
    1    38    37    76     9
   39    38    37    74     9
   39    38    37    75     9
   39    38    37    76     9
   40    38    37    74     9
   40    38    37    75     9
   40    38    37    76     9
    1    38    39    77     9
    1    38    39    78     9
    1    38    39    79     9
   37    38    39    77     9
   37    38    39    78     9
   37    38    39    79     9
   40    38    39    77     9
   40    38    39    78     9
   40    38    39    79     9
    1    38    40    80     9
    1    38    40    81     9
    1    38    40    82     9
   37    38    40    80     9
   37    38    40    81     9
   37    38    40    82     9
   39    38    40    80     9
   39    38    40    81     9
   39    38    40    82     9

[ dihedrals ]
; ai	aj	ak	al	funct	q0	cq
   27    26    16    28     2
   32    34    25    33     2
