        75  EXT
         1         1  0Q4       N               9.2520000000       16.6690000000       32.6950000000  HETA      125            21.2700000000
         2         1  0Q4       CA              8.2130000000       16.4200000000       33.7400000000  HETA      125            21.7600000000
         3         1  0Q4       CA1             4.9000000000       16.9020000000       31.7980000000  HETA      125            18.9000000000
         4         1  0Q4       CA2             1.6810000000       17.2970000000       33.7950000000  HETA      125            17.9600000000
         5         1  0Q4       CA3            -1.4570000000       17.5240000000       31.6410000000  HETA      125            16.8900000000
         6         1  0Q4       CA4            -4.6350000000       16.4760000000       33.5530000000  HETA      125            15.8100000000
         7         1  0Q4       CA5            -8.1140000000       15.5730000000       32.3730000000  HETA      125            21.8200000000
         8         1  0Q4       CA6           -11.4340000000       14.3420000000       33.8150000000  HETA      125            31.0900000000
         9         1  0Q4       C               6.8670000000       17.0690000000       33.2820000000  HETA      125            21.8900000000
        10         1  0Q4       O               6.5300000000       18.1880000000       33.7130000000  HETA      125            22.4800000000
        11         1  0Q4       CB              8.7130000000       16.9670000000       35.0830000000  HETA      125            21.8000000000
        12         1  0Q4       CB1             4.7710000000       16.4540000000       30.2520000000  HETA      125            19.2800000000
        13         1  0Q4       CB2             2.0010000000       17.8020000000       35.2230000000  HETA      125            19.3200000000
        14         1  0Q4       CB3            -1.3090000000       17.3340000000       30.1020000000  HETA      125            18.2200000000
        15         1  0Q4       CB4            -4.5490000000       16.8850000000       35.0510000000  HETA      125            17.0700000000
        16         1  0Q4       CB5            -8.1030000000       15.3300000000       30.8760000000  HETA      125            22.2400000000
        17         1  0Q4       CB6           -12.6180000000       15.3090000000       34.0760000000  HETA      125            32.5500000000
        18         1  0Q4       CG              8.5030000000       16.0570000000       36.3420000000  HETA      125            26.6900000000
        19         1  0Q4       CG1             5.7290000000       17.2370000000       29.3510000000  HETA      125            20.0800000000
        20         1  0Q4       CG2             5.0930000000       14.9550000000       30.0900000000  HETA      125            19.5400000000
        21         1  0Q4       CG3             1.3200000000       17.0090000000       36.3740000000  HETA      125            21.1200000000
        22         1  0Q4       CG4            -2.5610000000       17.0200000000       29.3820000000  HETA      125            21.5900000000
        23         1  0Q4       CG5            -5.2010000000       15.9630000000       36.0630000000  HETA      125            18.5000000000
        24         1  0Q4       CG6           -13.4200000000       15.1320000000       35.4130000000  HETA      125            32.7300000000
        25         1  0Q4       CD              7.1110000000       16.1800000000       37.0560000000  HETA      125            29.7600000000
        26         1  0Q4       CD1            -2.8830000000       15.7090000000       29.0590000000  HETA      125            22.9900000000
        27         1  0Q4       CD1             1.3130000000       15.4990000000       36.1390000000  HETA      125            21.2200000000
        28         1  0Q4       CD2            -3.4540000000       18.0310000000       29.0440000000  HETA      125            24.6500000000
        29         1  0Q4       CD2             2.0040000000       17.3190000000       37.6930000000  HETA      125            17.4700000000
        30         1  0Q4       CD3            -6.4320000000       16.5840000000       36.7410000000  HETA      125            26.6800000000
        31         1  0Q4       CD4           -12.8140000000       14.0660000000       36.4090000000  HETA      125            31.5900000000
        32         1  0Q4       CE            -13.5900000000       14.0350000000       37.7100000000  HETA      125            23.2900000000
        33         1  0Q4       CE1            -4.1000000000       15.3950000000       28.4110000000  HETA      125            24.0000000000
        34         1  0Q4       CE2            -4.6860000000       17.7330000000       28.3860000000  HETA      125            27.2700000000
        35         1  0Q4       NE              6.4860000000       14.9000000000       37.4140000000  HETA      125            32.2600000000
        36         1  0Q4       OE1            -6.8270000000       16.1020000000       37.8190000000  HETA      125            29.7100000000
        37         1  0Q4       OE2            -7.0190000000       17.5630000000       36.2080000000  HETA      125            31.3500000000
        38         1  0Q4       CZ              5.4640000000       14.3430000000       36.7600000000  HETA      125            34.7200000000
        39         1  0Q4       CZ1            -5.0020000000       16.4110000000       28.0760000000  HETA      125            25.6400000000
        40         1  0Q4       NH1             4.9630000000       14.9530000000       35.6980000000  HETA      125            35.0700000000
        41         1  0Q4       NH2             4.8610000000       13.2430000000       37.2350000000  HETA      125            35.8600000000
        42         1  0Q4       C1              3.6730000000       16.5280000000       32.6690000000  HETA      125            17.1400000000
        43         1  0Q4       N1              6.1510000000       16.3970000000       32.3660000000  HETA      125            19.1000000000
        44         1  0Q4       O1              3.4290000000       15.3770000000       33.0060000000  HETA      125            18.8700000000
        45         1  0Q4       C2              0.3450000000       17.8230000000       33.2860000000  HETA      125            17.5600000000
        46         1  0Q4       N2              2.8290000000       17.5100000000       32.9350000000  HETA      125            17.7800000000
        47         1  0Q4       O2             -2.2260000000       15.4230000000       32.5690000000  HETA      125            12.5100000000
        48         1  0Q4       C3             -2.4920000000       16.6080000000       32.3510000000  HETA      125            15.0600000000
        49         1  0Q4       N3             -0.1620000000       17.1890000000       32.2440000000  HETA      125            16.6400000000
        50         1  0Q4       O3             -6.6060000000       17.7670000000       32.9880000000  HETA      125            17.5000000000
        51         1  0Q4       C4             -6.0720000000       16.6570000000       33.0530000000  HETA      125            17.5200000000
        52         1  0Q4       N4             -3.6040000000       17.1930000000       32.7980000000  HETA      125            14.5400000000
        53         1  0Q4       O4             -8.8120000000       13.4240000000       33.2870000000  HETA      125            20.8800000000
        54         1  0Q4       C5             -9.1120000000       14.5940000000       33.0420000000  HETA      125            24.0900000000
        55         1  0Q4       N5             -6.7490000000       15.5390000000       32.8520000000  HETA      125            19.6100000000
        56         1  0Q4       O5            -11.9720000000       13.6860000000       31.5310000000  HETA      125            34.6000000000
        57         1  0Q4       C6            -11.8190000000       13.3190000000       32.7330000000  HETA      125            33.7800000000
        58         1  0Q4       N6            -10.3170000000       15.1040000000       33.2720000000  HETA      125            27.6600000000
        59         1  0Q4       N7            -12.0000000000       12.1390000000       33.1210000000  HETA      125            36.5300000000
        60         1  0Q4       H               9.7890000000       17.5240000000       32.8940000000  HETA      125            15.0000000000
        61         1  0Q4       HN2             2.9990000000       18.4110000000       32.5780000000  HETA      125            15.0000000000
        62         1  0Q4       HN3             8.8120000000       16.7620000000       31.7650000000  HETA      125            15.0000000000
        63         1  0Q4       HE              6.8370000000       14.4090000000       38.1900000000  HETA      125            15.0000000000
        64         1  0Q4       HH11            5.3500000000       15.8200000000       35.3880000000  HETA      125            15.0000000000
        65         1  0Q4       HH12            4.1960000000       14.5440000000       35.2010000000  HETA      125            15.0000000000
        66         1  0Q4       HH21            5.1710000000       12.8230000000       38.0860000000  HETA      125            15.0000000000
        67         1  0Q4       HH22            4.0940000000       12.8450000000       36.7280000000  HETA      125            15.0000000000
        68         1  0Q4       H1              6.4280000000       15.5100000000       32.0510000000  HETA      125            15.0000000000
        69         1  0Q4       H2              9.8760000000       15.8230000000       32.7090000000  HETA      125            15.0000000000
        70         1  0Q4       H3              0.3460000000       16.4450000000       31.8690000000  HETA      125            15.0000000000
        71         1  0Q4       H4             -3.7760000000       18.1380000000       32.5940000000  HETA      125            15.0000000000
        72         1  0Q4       H5             -6.3300000000       14.6660000000       33.0210000000  HETA      125            15.0000000000
        73         1  0Q4       H6            -10.4810000000       16.0260000000       33.0110000000  HETA      125            15.0000000000
        74         1  0Q4       H71           -12.2550000000       11.4610000000       32.4030000000  HETA      125             0.0000000000
        75         1  0Q4       H72           -11.8770000000       11.8420000000       34.0890000000  HETA      125             0.0000000000
