* GENERATE LIGAND
*  DATE:    12/22/25     11:16:40      CREATED BY USER: charmm-gui
*
       130  EXT
         1         1  LIG       N1              9.2618597614       16.6831133202       32.6852225374  LIG       1               0.0000000000
         2         1  LIG       C1              8.2018267262       16.4303787584       33.7213363373  LIG       1               0.0000000000
         3         1  LIG       C2              4.9360562015       16.9251416872       31.7423757400  LIG       1               0.0000000000
         4         1  LIG       C3              1.7033070573       17.2791593524       33.7983593406  LIG       1               0.0000000000
         5         1  LIG       C4             -1.4297484156       17.5079740638       31.5914675458  LIG       1               0.0000000000
         6         1  LIG       C5             -4.5886342034       16.4332524772       33.5891642858  LIG       1               0.0000000000
         7         1  LIG       C6             -8.1125040005       15.6251981279       32.3499155141  LIG       1               0.0000000000
         8         1  LIG       C7            -11.4202830871       14.3576190717       33.7612614038  LIG       1               0.0000000000
         9         1  LIG       C8              6.8716882125       17.0357308015       33.2867190720  LIG       1               0.0000000000
        10         1  LIG       O1              6.4757488302       18.0902393082       33.7665572841  LIG       1               0.0000000000
        11         1  LIG       C9              8.7047271599       16.9627749792       35.1131067214  LIG       1               0.0000000000
        12         1  LIG       C10             4.7654972372       16.4554156283       30.2920473846  LIG       1               0.0000000000
        13         1  LIG       C11             2.0353574546       17.7545832445       35.2325230166  LIG       1               0.0000000000
        14         1  LIG       C12            -1.3131613600       17.3028933339       30.0522141426  LIG       1               0.0000000000
        15         1  LIG       C13            -4.5009234792       16.8981439862       35.0638935080  LIG       1               0.0000000000
        16         1  LIG       C14            -8.1114281941       15.3345011261       30.8357400309  LIG       1               0.0000000000
        17         1  LIG       C15           -12.6158454543       15.3053316167       34.0939782068  LIG       1               0.0000000000
        18         1  LIG       C16             8.4670439611       16.0211868630       36.3277983357  LIG       1               0.0000000000
        19         1  LIG       C17             5.7228911417       17.2611313081       29.3900603048  LIG       1               0.0000000000
        20         1  LIG       C18             5.0638042921       14.9484942828       30.1373248875  LIG       1               0.0000000000
        21         1  LIG       C19             1.3264829254       16.9932473383       36.3827460044  LIG       1               0.0000000000
        22         1  LIG       C20            -2.6103159904       17.0137638114       29.3656391840  LIG       1               0.0000000000
        23         1  LIG       C21            -5.2183576905       15.9666906755       36.0718716350  LIG       1               0.0000000000
        24         1  LIG       C22           -13.3984563236       15.0968787932       35.4144182024  LIG       1               0.0000000000
        25         1  LIG       C23             7.0993867360       16.2202750182       37.0250046043  LIG       1               0.0000000000
        26         1  LIG       C24            -2.9290657194       15.6854827312       29.0508811169  LIG       1               0.0000000000
        27         1  LIG       C25             1.9979261787       17.3351148248       37.7226671077  LIG       1               0.0000000000
        28         1  LIG       C26            -3.4991031732       18.0452291903       29.0379194858  LIG       1               0.0000000000
        29         1  LIG       C27             1.3022349836       15.4629996689       36.2059304375  LIG       1               0.0000000000
        30         1  LIG       C28            -6.4596814507       16.6118128497       36.6849498188  LIG       1               0.0000000000
        31         1  LIG       C29           -12.8326823206       14.0805471842       36.4140834963  LIG       1               0.0000000000
        32         1  LIG       C30           -13.6151426000       14.0324351191       37.7274487357  LIG       1               0.0000000000
        33         1  LIG       C31            -4.1320163834       15.3846867470       28.4056945185  LIG       1               0.0000000000
        34         1  LIG       C32            -4.7059687110       17.7455919029       28.3913057353  LIG       1               0.0000000000
        35         1  LIG       N2              6.4941105655       14.9227942965       37.3833637976  LIG       1               0.0000000000
        36         1  LIG       O2             -6.8309341329       16.0302447650       37.8753970134  LIG       1               0.0000000000
        37         1  LIG       O3             -7.1043926760       17.5426743167       36.2404849459  LIG       1               0.0000000000
        38         1  LIG       C33             5.4524190721       14.3615207170       36.7397927212  LIG       1               0.0000000000
        39         1  LIG       C34            -5.0214185126       16.4157558618       28.0759869599  LIG       1               0.0000000000
        40         1  LIG       N3              4.9511365973       14.9146383341       35.6362883725  LIG       1               0.0000000000
        41         1  LIG       N4              4.9030597186       13.2391101724       37.2090535978  LIG       1               0.0000000000
        42         1  LIG       C35             3.7592941872       16.5339413704       32.6169230810  LIG       1               0.0000000000
        43         1  LIG       N5              6.1522361761       16.3907109927       32.3387264755  LIG       1               0.0000000000
        44         1  LIG       O4              3.7214955567       15.4045381801       33.1078866831  LIG       1               0.0000000000
        45         1  LIG       C36             0.3867779323       17.9186425845       33.3080560485  LIG       1               0.0000000000
        46         1  LIG       N6              2.8313496682       17.4843995719       32.9021186823  LIG       1               0.0000000000
        47         1  LIG       O5             -2.2063662737       15.4195863181       32.5739941861  LIG       1               0.0000000000
        48         1  LIG       C37            -2.4490388899       16.6049142658       32.3440441750  LIG       1               0.0000000000
        49         1  LIG       N7              0.0124560853       17.3972380352       31.9879803080  LIG       1               0.0000000000
        50         1  LIG       O6             -6.4109395359       17.7768872950       32.8332410806  LIG       1               0.0000000000
        51         1  LIG       C38            -5.9980508432       16.6452403403       33.0730683829  LIG       1               0.0000000000
        52         1  LIG       N8             -3.6180420666       17.1565046037       32.7791191973  LIG       1               0.0000000000
        53         1  LIG       O7             -8.7131839670       13.5481663256       33.4086554986  LIG       1               0.0000000000
        54         1  LIG       C39            -9.0622499094       14.6725487673       33.0519062087  LIG       1               0.0000000000
        55         1  LIG       N9             -6.7646620642       15.5505204516       32.8748877413  LIG       1               0.0000000000
        56         1  LIG       O8            -11.9908470501       13.6291774588       31.5460348729  LIG       1               0.0000000000
        57         1  LIG       C40           -11.8581037157       13.3219202126       32.7317626731  LIG       1               0.0000000000
        58         1  LIG       N10           -10.3106006070       15.1370797389       33.2543209585  LIG       1               0.0000000000
        59         1  LIG       N11           -12.0826495907       12.0463170535       33.1408733370  LIG       1               0.0000000000
        60         1  LIG       H1              9.4052979652       17.7095986946       32.5743591130  LIG       1               0.0000000000
        61         1  LIG       H2              2.8874626316       18.3908736869       32.4945851968  LIG       1               0.0000000000
        62         1  LIG       H3              9.0050777015       16.2757792428       31.7634186470  LIG       1               0.0000000000
        63         1  LIG       H4              6.8167119616       14.4417689411       38.1945085314  LIG       1               0.0000000000
        64         1  LIG       H5              5.2385438617       15.8255346651       35.3874678545  LIG       1               0.0000000000
        65         1  LIG       H6              4.1591076091       14.5254777838       35.1692622104  LIG       1               0.0000000000
        66         1  LIG       H7              5.2148097100       12.8446959369       38.0653466550  LIG       1               0.0000000000
        67         1  LIG       H8              4.1124716133       12.8576349191       36.7419270684  LIG       1               0.0000000000
        68         1  LIG       H9              6.3891312055       15.4875981660       31.9899652338  LIG       1               0.0000000000
        69         1  LIG       H10            10.1615784590       16.2594328475       32.9955514362  LIG       1               0.0000000000
        70         1  LIG       H11             0.2857186091       16.4130791341       31.9174091883  LIG       1               0.0000000000
        71         1  LIG       H12            -3.8665823599       18.1046038229       32.5951257513  LIG       1               0.0000000000
        72         1  LIG       H13            -6.4025621317       14.6329832667       33.0105318229  LIG       1               0.0000000000
        73         1  LIG       H14           -10.5332087555       16.0630732126       32.9799845078  LIG       1               0.0000000000
        74         1  LIG       H15           -11.8871763300       11.7838509189       34.0810842034  LIG       1               0.0000000000
        75         1  LIG       H16           -12.2838785781       11.3865693665       32.4266926211  LIG       1               0.0000000000
        76         1  LIG       H17             8.0713080552       15.3273856581       33.7938850132  LIG       1               0.0000000000
        77         1  LIG       H18             4.9723877322       18.0394499375       31.7322696561  LIG       1               0.0000000000
        78         1  LIG       H19             1.5026927084       16.1850310757       33.7984936647  LIG       1               0.0000000000
        79         1  LIG       H20            -1.7540415310       18.5552241322       31.7779312263  LIG       1               0.0000000000
        80         1  LIG       H21            -4.3935477621       15.3380061172       33.5511179507  LIG       1               0.0000000000
        81         1  LIG       H22            -8.5304166830       16.6454635434       32.5128809552  LIG       1               0.0000000000
        82         1  LIG       H23           -11.0469797701       13.8426743768       34.6679818477  LIG       1               0.0000000000
        83         1  LIG       H24             8.3084069116       17.9763694368       35.3434952965  LIG       1               0.0000000000
        84         1  LIG       H25             9.8125070562       17.0958123783       35.0749763060  LIG       1               0.0000000000
        85         1  LIG       H26             3.7228761226       16.6541857969       29.9422411269  LIG       1               0.0000000000
        86         1  LIG       H27             1.7851001518       18.8366680148       35.3205014812  LIG       1               0.0000000000
        87         1  LIG       H28             3.1312326508       17.6704438373       35.3866030054  LIG       1               0.0000000000
        88         1  LIG       H29            -0.6205561785       16.4643250096       29.8177839581  LIG       1               0.0000000000
        89         1  LIG       H30            -0.8751482107       18.2222690002       29.6044545660  LIG       1               0.0000000000
        90         1  LIG       H31            -4.8672990161       17.9456869015       35.1574941757  LIG       1               0.0000000000
        91         1  LIG       H32            -3.4203461297       16.9214805551       35.3335354303  LIG       1               0.0000000000
        92         1  LIG       H33            -9.1243185799       15.4757950098       30.4011903840  LIG       1               0.0000000000
        93         1  LIG       H34            -7.7784987978       14.2939442085       30.6320279466  LIG       1               0.0000000000
        94         1  LIG       H35            -7.4092819815       16.0306127484       30.3284248613  LIG       1               0.0000000000
        95         1  LIG       H36           -13.3458003528       15.3266747995       33.2518345732  LIG       1               0.0000000000
        96         1  LIG       H37           -12.2069036288       16.3409526650       34.1395453779  LIG       1               0.0000000000
        97         1  LIG       H38             9.2453654959       16.2536540842       37.0948851277  LIG       1               0.0000000000
        98         1  LIG       H39             8.6386867966       14.9679527826       36.0209367122  LIG       1               0.0000000000
        99         1  LIG       H40             6.7821154733       17.0998628225       29.6748939884  LIG       1               0.0000000000
       100         1  LIG       H41             5.4992000282       18.3479875666       29.4372510171  LIG       1               0.0000000000
       101         1  LIG       H42             5.6035290377       16.9360707769       28.3324003546  LIG       1               0.0000000000
       102         1  LIG       H43             4.4626119090       14.3325164306       30.8378439249  LIG       1               0.0000000000
       103         1  LIG       H44             6.1408542935       14.7245891981       30.2778106045  LIG       1               0.0000000000
       104         1  LIG       H45             4.8048473922       14.6288090870       29.1027469059  LIG       1               0.0000000000
       105         1  LIG       H46             0.2652407445       17.3383931840       36.4267012147  LIG       1               0.0000000000
       106         1  LIG       H47            -4.5133550414       15.7174882678       36.8943398230  LIG       1               0.0000000000
       107         1  LIG       H48            -5.5242126596       15.0174185473       35.5869107151  LIG       1               0.0000000000
       108         1  LIG       H49           -14.4404694468       14.7909316321       35.1649741181  LIG       1               0.0000000000
       109         1  LIG       H50           -13.4736417446       16.0842864810       35.9277817364  LIG       1               0.0000000000
       110         1  LIG       H51             6.4419944933       16.8522655498       36.4053669033  LIG       1               0.0000000000
       111         1  LIG       H52             7.2552871556       16.8040708697       37.9521941709  LIG       1               0.0000000000
       112         1  LIG       H53            -2.2391756770       14.8948620781       29.3101163806  LIG       1               0.0000000000
       113         1  LIG       H54             1.9311365175       18.4245049272       37.9283225159  LIG       1               0.0000000000
       114         1  LIG       H55             3.0684479218       17.0424874603       37.7004194436  LIG       1               0.0000000000
       115         1  LIG       H56             1.5020920049       16.7889133385       38.5532495086  LIG       1               0.0000000000
       116         1  LIG       H57            -3.2482039033       19.0686689625       29.2732945427  LIG       1               0.0000000000
       117         1  LIG       H58             2.3094789242       15.0949884263       35.9363373486  LIG       1               0.0000000000
       118         1  LIG       H59             0.5974130180       15.1798769154       35.3936098423  LIG       1               0.0000000000
       119         1  LIG       H60             0.9633110283       14.9602147464       37.1342202247  LIG       1               0.0000000000
       120         1  LIG       H61           -11.7759136630       14.3459903616       36.6476669165  LIG       1               0.0000000000
       121         1  LIG       H62           -12.8440268400       13.0698114742       35.9466971262  LIG       1               0.0000000000
       122         1  LIG       H63           -14.6768364527       13.7642591477       37.5398791628  LIG       1               0.0000000000
       123         1  LIG       H64           -13.5865989089       15.0239944743       38.2290731996  LIG       1               0.0000000000
       124         1  LIG       H65           -13.1749614634       13.2786834155       38.4151232651  LIG       1               0.0000000000
       125         1  LIG       H66            -4.3676817938       14.3589136170       28.1622195478  LIG       1               0.0000000000
       126         1  LIG       H67            -5.3907355014       18.5395376805       28.1322750980  LIG       1               0.0000000000
       127         1  LIG       H68            -7.5936618745       16.5089847930       38.1967879632  LIG       1               0.0000000000
       128         1  LIG       H69            -5.9494362016       16.1836442621       27.5755513651  LIG       1               0.0000000000
       129         1  LIG       H70             0.5255477522       19.0229482740       33.2306741333  LIG       1               0.0000000000
       130         1  LIG       H71            -0.4145216620       17.7261781074       34.0561964124  LIG       1               0.0000000000
