* GENERATED BY CHARMM-GUI (HTTP://WWW.CHARMM-GUI.ORG)
*
        59  EXT
         1         1  LIG       N1              9.2520000000       16.6690000000       32.6950000000  LIG       1               0.0000000000
         2         1  LIG       C1              8.2130000000       16.4200000000       33.7400000000  LIG       1               0.0000000000
         3         1  LIG       C2              4.9000000000       16.9020000000       31.7980000000  LIG       1               0.0000000000
         4         1  LIG       C3              1.6810000000       17.2970000000       33.7950000000  LIG       1               0.0000000000
         5         1  LIG       C4             -1.4570000000       17.5240000000       31.6410000000  LIG       1               0.0000000000
         6         1  LIG       C5             -4.6350000000       16.4760000000       33.5530000000  LIG       1               0.0000000000
         7         1  LIG       C6             -8.1140000000       15.5730000000       32.3730000000  LIG       1               0.0000000000
         8         1  LIG       C7            -11.4340000000       14.3420000000       33.8150000000  LIG       1               0.0000000000
         9         1  LIG       C8              6.8670000000       17.0690000000       33.2820000000  LIG       1               0.0000000000
        10         1  LIG       O1              6.5300000000       18.1880000000       33.7130000000  LIG       1               0.0000000000
        11         1  LIG       C9              8.7130000000       16.9670000000       35.0830000000  LIG       1               0.0000000000
        12         1  LIG       C10             4.7710000000       16.4540000000       30.2520000000  LIG       1               0.0000000000
        13         1  LIG       C11             2.0010000000       17.8020000000       35.2230000000  LIG       1               0.0000000000
        14         1  LIG       C12            -1.3090000000       17.3340000000       30.1020000000  LIG       1               0.0000000000
        15         1  LIG       C13            -4.5490000000       16.8850000000       35.0510000000  LIG       1               0.0000000000
        16         1  LIG       C14            -8.1030000000       15.3300000000       30.8760000000  LIG       1               0.0000000000
        17         1  LIG       C15           -12.6180000000       15.3090000000       34.0760000000  LIG       1               0.0000000000
        18         1  LIG       C16             8.5030000000       16.0570000000       36.3420000000  LIG       1               0.0000000000
        19         1  LIG       C17             5.7290000000       17.2370000000       29.3510000000  LIG       1               0.0000000000
        20         1  LIG       C18             5.0930000000       14.9550000000       30.0900000000  LIG       1               0.0000000000
        21         1  LIG       C19             1.3200000000       17.0090000000       36.3740000000  LIG       1               0.0000000000
        22         1  LIG       C20            -2.5610000000       17.0200000000       29.3820000000  LIG       1               0.0000000000
        23         1  LIG       C21            -5.2010000000       15.9630000000       36.0630000000  LIG       1               0.0000000000
        24         1  LIG       C22           -13.4200000000       15.1320000000       35.4130000000  LIG       1               0.0000000000
        25         1  LIG       C23             7.1110000000       16.1800000000       37.0560000000  LIG       1               0.0000000000
        26         1  LIG       C24            -2.8830000000       15.7090000000       29.0590000000  LIG       1               0.0000000000
        27         1  LIG       C25             2.0040000000       17.3190000000       37.6930000000  LIG       1               0.0000000000
        28         1  LIG       C26            -3.4540000000       18.0310000000       29.0440000000  LIG       1               0.0000000000
        29         1  LIG       C27             1.3130000000       15.4990000000       36.1390000000  LIG       1               0.0000000000
        30         1  LIG       C28            -6.4320000000       16.5840000000       36.7410000000  LIG       1               0.0000000000
        31         1  LIG       C29           -12.8140000000       14.0660000000       36.4090000000  LIG       1               0.0000000000
        32         1  LIG       C30           -13.5900000000       14.0350000000       37.7100000000  LIG       1               0.0000000000
        33         1  LIG       C31            -4.1000000000       15.3950000000       28.4110000000  LIG       1               0.0000000000
        34         1  LIG       C32            -4.6860000000       17.7330000000       28.3860000000  LIG       1               0.0000000000
        35         1  LIG       N2              6.4860000000       14.9000000000       37.4140000000  LIG       1               0.0000000000
        36         1  LIG       O2             -6.8270000000       16.1020000000       37.8190000000  LIG       1               0.0000000000
        37         1  LIG       O3             -7.0190000000       17.5630000000       36.2080000000  LIG       1               0.0000000000
        38         1  LIG       C33             5.4640000000       14.3430000000       36.7600000000  LIG       1               0.0000000000
        39         1  LIG       C34            -5.0020000000       16.4110000000       28.0760000000  LIG       1               0.0000000000
        40         1  LIG       N3              4.9630000000       14.9530000000       35.6980000000  LIG       1               0.0000000000
        41         1  LIG       N4              4.8610000000       13.2430000000       37.2350000000  LIG       1               0.0000000000
        42         1  LIG       C35             3.6730000000       16.5280000000       32.6690000000  LIG       1               0.0000000000
        43         1  LIG       N5              6.1510000000       16.3970000000       32.3660000000  LIG       1               0.0000000000
        44         1  LIG       O4              3.4290000000       15.3770000000       33.0060000000  LIG       1               0.0000000000
        45         1  LIG       C36             0.3450000000       17.8230000000       33.2860000000  LIG       1               0.0000000000
        46         1  LIG       N6              2.8290000000       17.5100000000       32.9350000000  LIG       1               0.0000000000
        47         1  LIG       O5             -2.2260000000       15.4230000000       32.5690000000  LIG       1               0.0000000000
        48         1  LIG       C37            -2.4920000000       16.6080000000       32.3510000000  LIG       1               0.0000000000
        49         1  LIG       N7             -0.1620000000       17.1890000000       32.2440000000  LIG       1               0.0000000000
        50         1  LIG       O6             -6.6060000000       17.7670000000       32.9880000000  LIG       1               0.0000000000
        51         1  LIG       C38            -6.0720000000       16.6570000000       33.0530000000  LIG       1               0.0000000000
        52         1  LIG       N8             -3.6040000000       17.1930000000       32.7980000000  LIG       1               0.0000000000
        53         1  LIG       O7             -8.8120000000       13.4240000000       33.2870000000  LIG       1               0.0000000000
        54         1  LIG       C39            -9.1120000000       14.5940000000       33.0420000000  LIG       1               0.0000000000
        55         1  LIG       N9             -6.7490000000       15.5390000000       32.8520000000  LIG       1               0.0000000000
        56         1  LIG       O8            -11.9720000000       13.6860000000       31.5310000000  LIG       1               0.0000000000
        57         1  LIG       C40           -11.8190000000       13.3190000000       32.7330000000  LIG       1               0.0000000000
        58         1  LIG       N10           -10.3170000000       15.1040000000       33.2720000000  LIG       1               0.0000000000
        59         1  LIG       N11           -12.0000000000       12.1390000000       33.1210000000  LIG       1               0.0000000000
