Cpptraj Generated Restart                                                       
 4005  0.0000000E+00
  51.4319620  62.9301229  49.0929580  52.0806416  63.4408682  48.5081040
  50.8706997  63.5884179  49.6211405  50.8232655  62.4002066  48.4764473
  52.1894316  62.0356054  49.9927757  51.7191216  62.0812322  50.9729572
  52.1562900  60.5759670  49.4767174  51.2146904  60.4259853  48.9465428
  52.9644694  60.4341461  48.7574624  52.2545328  59.4625079  50.5412455
  53.2268576  59.5029156  51.0323944  51.1590882  59.5861470  51.6003891
  50.1770611  59.5928267  51.1224902  51.1965848  58.7403350  52.2876526
  51.2739435  60.4977791  52.1836892  52.1011716  58.0945682  49.8667216
  52.9018283  57.9433732  49.1438462  52.1499004  57.2974069  50.6088479
  51.1407260  58.0343921  49.3508421  53.6107414  62.5763050  50.1218902
  54.0994375  63.2155157  49.1951208  54.2712393  62.3313829  51.2553878
  53.8056597  61.8372013  52.0014834  55.6389372  62.7861077  51.5216348
  56.2289264  62.7051531  50.6077984  55.6120091  64.2653366  51.9370847
  54.9957583  64.3988005  52.8276096  56.6255333  64.6057905  52.1521353
  55.2058056  64.8735020  51.1273915  56.2789994  61.9001788  52.6038457
  55.8269075  61.8981045  53.7524189  57.2896835  61.1080376  52.2330608
  57.5805035  61.1353196  51.2589735  57.8303301  60.0316673  53.0772024
  57.7564941  60.3260320  54.1252837  56.9609157  58.7718012  52.8841770
  55.9314107  59.0071750  53.1557225  56.9757019  58.4881155  51.8307995
  57.4213546  57.5672032  53.7157339  58.4712514  57.3715476  53.5020872
  57.3356806  57.8054909  54.7764156  56.5099372  56.0333259  53.3774567
  54.9143826  56.3777450  54.1652171  54.4244253  57.2119962  53.6640597
  54.2806812  55.4934880  54.0924553  55.0696292  56.6194813  55.2169485
  59.3111741  59.7583090  52.7738450  59.6241173  59.1723678  51.7391603
  60.2208052  60.1948636  53.6535458  59.8985040  60.7119526  54.4572306
  61.6291920  59.7415199  53.6771457  62.1139002  60.0292909  52.7464313
  62.3839304  60.4049929  54.8486418  61.8583526  60.1866144  55.7793336
  63.8411187  59.9701152  54.9954911  64.3676027  60.0496561  54.0436498
  64.3411725  60.5866785  55.7433897  63.8882631  58.9374894  55.3431372
  62.4278920  61.8082183  54.6718884  63.1285490  61.9620046  54.0282885
  61.7141173  58.2132735  53.8045651  60.9459143  57.6180200  54.5569226
  62.6461140  57.5817491  53.0886112  63.2606604  58.1390229  52.5040982
  62.9996757  56.1673860  53.2521697  62.1132416  55.5933364  53.5207583
  63.5632128  55.6166218  51.9311480  64.4770451  56.1609473  51.6857915
  63.8269297  54.5675152  52.0690006  62.6079184  55.7273740  50.7337483
  62.3055662  56.7654789  50.5947016  63.1693667  55.4386103  49.8454884
  61.1306917  54.6723854  50.7977063  59.9250895  55.7983394  51.5511014
  59.9156308  56.7412605  51.0066448  58.9322104  55.3523993  51.5006511
  60.1781072  55.9817355  52.5935639  64.0349224  56.0051434  54.3732723
  65.0542229  56.6890353  54.3634290  63.8089090  55.0680904  55.2954673
  62.9677506  54.5143380  55.2326352  64.6672859  54.8078701  56.4608366
  65.6170812  55.3204888  56.3278050  63.9988654  55.4034712  57.7175666
  63.5653472  56.3755748  57.4762250  63.1781454  54.7461981  58.0087015
  64.9348893  55.5788305  58.9298744  64.3121450  55.7253290  59.8147047
  65.4964100  54.6567857  59.0889769  65.9134394  56.7681245  58.8439991
  66.6986397  56.9508772  59.8104043  65.9611989  57.4953449  57.8327449
  64.9308477  53.2909819  56.5916295  64.0787776  52.4760510  56.2281672
  66.1073863  52.8788681  57.0833284  66.8023249  53.5635518  57.3575602
  66.4398998  51.4588197  57.2781213  66.3941784  50.9463973  56.3197156
  67.8792102  51.3399389  57.8039670  68.5627646  51.7441981  57.0579415
  67.9725648  51.9434086  58.7063973  68.3278888  49.9411642  58.1583158
  69.2040683  49.6267196  59.1702189  69.6681820  50.2815657  59.7984541
  69.4060358  48.3007197  59.1645014  70.0540824  47.7697082  59.8519968
  68.6976127  47.7313115  58.1768717  68.0255467  48.7673669  57.5151182
  67.3888298  48.6567865  56.6473579  65.4591722  50.7478580  58.2247660
  64.9516830  49.6726394  57.9103916  65.1805204  51.3533848  59.3843227
  65.5441759  52.2839182  59.5109775  64.6575425  50.6537738  60.5698243
  64.8140200  49.5846250  60.4086426  65.5153332  50.9980545  61.8019370
  65.0815183  50.4918519  62.6584262  66.5017440  50.5508254  61.6688645
  65.6714353  52.4892560  62.1584038  64.8180160  53.0587055  61.7902151
  65.6867420  52.5664890  63.2468325  66.9775853  53.0993572  61.6180385
  67.7903035  52.3843246  61.7580529  66.8899820  53.3075292  60.5519281
  67.3700488  54.3743399  62.3719736  67.3901393  54.1610216  63.4454570
  68.3824765  54.6475300  62.0691392  66.4648102  55.5144629  62.1093921
  65.5197134  55.3561572  62.4504463  66.7957965  56.3347169  62.6073293
  66.4562889  55.7905096  61.1285005  63.1375865  50.7447293  60.7928065
  62.6581083  50.5211020  61.9098498  62.3871975  51.0200054  59.7283224
  62.8661840  51.2981177  58.8835625  60.9462970  50.7713543  59.5812428
  60.7654409  49.7585508  59.9445241  60.0409712  51.6954010  60.4267919
  59.0071279  51.5303421  60.1186263  60.1051267  51.3576917  61.4619530
  60.3282944  53.2047418  60.4336797  61.4896718  53.6077255  60.6790162
  59.3335505  53.9615417  60.3475927  60.5516424  50.7564064  58.0874691
  61.2639632  51.2992872  57.2413719  59.4744671  50.0362214  57.7389533
  58.9068006  49.6508374  58.4794782  59.0085871  49.8599925  56.3468150
  59.8888536  49.9100490  55.7061593  58.3608232  48.4772516  56.1480253
  57.4074472  48.4437430  56.6792296  58.1543313  48.3573025  55.0840657
  59.2276980  47.2933846  56.6161393  60.2701845  47.4632864  56.3483984
  59.1550217  47.2152761  57.7023390  58.7600471  45.9833688  55.9590198
  57.7371769  46.1102939  55.5989152  59.3894108  45.7692203  55.0916918
  58.7572177  44.8425180  56.8916465  57.8815953  44.6565747  57.3745597
  59.7412867  44.0086795  57.1684747  60.9563020  44.1630557  56.7443573
  61.2706301  44.9961217  56.2635720  61.6938012  43.5482371  57.0656474
  59.5182060  42.9565393  57.8955535  58.5944550  42.7648584  58.2369248
  60.3024602  42.3426079  58.1090339  58.0449941  50.9801642  55.8936484
  57.2819489  51.4840364  56.7196711  57.9992504  51.3331535  54.5921159
  58.8958794  50.8603793  53.5438185  58.8477842  49.7779964  53.4258983
  59.9142596  51.1642425  53.7829961  58.4558871  51.5448438  52.2512275
  57.7462368  50.9118511  51.7164179  59.3112864  51.7854296  51.6224165
  57.7633665  52.8114868  52.7446634  57.0385816  53.1886267  52.0232602
  58.5185663  53.5701759  52.9518813  57.1187312  52.3820949  54.0661227
  57.1129063  53.2391129  54.7412587  55.6732677  51.8693783  53.9126730
  55.2745819  51.3333138  52.8775836  54.8963115  52.0127430  54.9887736
  55.3245569  52.4415811  55.7984282  53.6532000  51.2745110  55.2359935
  53.4116237  50.6648905  54.3642926  53.9450917  50.3448324  56.4330509
  54.8650655  49.7870317  56.2478632  54.1186056  50.9725605  57.3090326
  52.8230526  49.3466246  56.7550007  51.8617873  49.8436991  56.6434878
  52.8782864  48.1332247  55.8272719  53.7910477  47.5647338  56.0063671
  52.0144858  47.4916408  56.0037189  52.8675640  48.4615586  54.7929221
  52.9501585  48.8474801  58.1940386  52.8508290  49.6826308  58.8870104
  52.1686712  48.1188279  58.4090885  53.9226477  48.3755802  58.3440510
  52.4694232  52.2260455  55.5121363  52.5267589  53.0493453  56.4321072
  51.3866342  52.1113129  54.7344321  51.3732214  51.3612807  54.0457163
  50.2534045  53.0629857  54.7136818  50.3805396  53.7763857  55.5275946
  50.2204680  53.8741537  53.3993597  49.3403291  54.5171962  53.4279384
  51.4442591  54.7903581  53.2881626  52.3517395  54.1948483  53.1846342
  51.3378157  55.4351527  52.4160699  51.5211913  55.4131071  54.1790702
  50.1298299  53.0130544  52.1317499  49.2530118  52.3685406  52.1739932
  50.0447439  53.6552709  51.2554179  51.0192808  52.3910826  52.0273902
  48.8974720  52.3836742  54.9394479  48.6999769  51.2135611  54.6197174
  47.9458953  53.1260527  55.5135918  48.1436604  54.1042197  55.6798279
  46.5734807  52.6749423  55.8023927  46.6014225  51.6139512  56.0605374
  46.0792244  53.4758521  57.0249874  46.9420236  53.6929110  57.6604273
  45.6738894  54.4369243  56.7073802  45.0742663  52.7515653  57.9303534
  45.4407354  51.7472193  58.1494696  45.0365966  53.3067820  58.8694690
  43.6495933  52.6652106  57.3744881  43.3746368  53.6400250  56.9717459
  43.6199359  51.9250604  56.5731394  42.7185645  52.2630576  58.4445431
  43.0981200  51.6406389  59.1528576  41.5029768  52.7190175  58.6805997
  40.9496988  53.6661260  57.9844915  41.4606605  54.1379889  57.2688575
  40.0275435  53.9827261  58.2642945  40.7821767  52.2430704  59.6447820
  41.1421179  51.5406035  60.2853071  39.8522206  52.6273302  59.7692879
  45.7037826  52.8373251  54.5477052  45.7962186  53.8615830  53.8745622
  44.8813832  51.8450129  54.2020075  44.8567401  51.0124645  54.7851591
  44.1602256  51.7889518  52.9133435  44.1059058  52.7918798  52.4936311
  44.9255659  50.9036543  51.9003916  45.0973954  49.9285246  52.3480434
  44.1720472  50.6902438  50.5799064  43.9276270  51.6504931  50.1252753
  44.7857463  50.1143391  49.8873483  43.2553536  50.1272943  50.7518106
  46.2962552  51.4953152  51.5508912  46.9305837  51.5228095  52.4351839
  46.7877116  50.8687955  50.8085279  46.1784821  52.5038417  51.1568887
  42.7213632  51.2956453  53.0931159  42.4789932  50.3139295  53.7954464
  41.7662690  51.9694009  52.4447697  42.0584133  52.7538748  51.8688035
  40.3998331  51.4652044  52.2269672  40.1825338  50.7200107  52.9934289
  39.3387605  52.5858817  52.3816159  39.4570313  53.0030156  53.3802077
  39.5187452  53.7496494  51.3893221  39.3486163  53.4153275  50.3659768
  38.8186540  54.5549123  51.6165357  40.5190259  54.1633856  51.4796418
  37.9135216  51.9834696  52.2890206  37.7741122  51.4913192  51.3270031
  37.8071700  51.2319944  53.0733221  36.7716259  52.9951066  52.4437652
  36.6684668  53.5843199  51.5318090  35.8353459  52.4641215  52.6226353
  36.9751764  53.6633097  53.2784805  40.3048005  50.7640677  50.8635299
  40.8016165  51.2785587  49.8590049  39.6440953  49.6037064  50.8334018
  39.2875462  49.2440982  51.7159988  39.2003378  48.9142272  49.6180391
  39.5085434  49.4774030  48.7358947  39.8036979  47.4984828  49.5499977
  39.4145397  46.9255252  50.3904554  39.4481341  47.0213352  48.6361617
  41.3390556  47.4055795  49.5846769  41.7132407  47.8272147  50.5174270
  41.7477572  45.9334884  49.5161128  41.3664918  45.4758973  48.6031632
  42.8322581  45.8530219  49.5261011  41.3499694  45.4004950  50.3801964
  41.9961158  48.1314137  48.4123229  41.7502104  49.1903729  48.4547567
  43.0787468  48.0268768  48.4784489  41.6485734  47.7187240  47.4666772
  37.6684620  48.8159016  49.6174533  37.0635081  48.5449442  50.6552970
  37.0178153  49.0260704  48.4726154  37.5500224  49.3636121  47.6725884
  35.5628537  48.8326481  48.3156586  35.2348140  48.1359897  49.0787071
  34.8116171  50.1581565  48.5445158  35.3078567  50.9551944  47.9900826
  33.3313688  50.1402544  48.1611143  32.8220301  49.3178643  48.6609040
  32.8695906  51.0829548  48.4572945  33.2239246  50.0349517  47.0817097
  34.8437252  50.4574638  49.9244825  35.7598477  50.3359464  50.2069030
  35.2134878  48.2117570  46.9641849  35.5241890  48.7915289  45.9263144
  34.5574198  47.0446336  46.9471204  34.2788105  46.6294171  47.8294851
  34.0716162  46.4438296  45.6995433  34.8746832  46.4874668  44.9570149
  33.7278268  44.9513098  45.9150108  34.6228027  44.4136365  46.2318790
  32.9753577  44.8601208  46.6938474  33.2005735  44.2882806  44.6441328
  33.2318803  44.8602006  43.5665250  32.6586008  43.0970831  44.7276282
  32.2907110  42.6928601  43.8600547  32.6542328  42.5896687  45.5924276
  32.8813454  47.2486384  45.1455615  31.8282410  47.3344046  45.7841325
  33.0260686  47.7827653  43.9294877  33.8956098  47.5988024  43.4347705
  32.0061014  48.5943511  43.2354908  31.3882341  49.0914699  43.9815837
  32.6591440  49.7049040  42.3859576  31.8684653  50.3487414  42.0077214
  33.6331758  50.5703512  43.1822534  34.5128305  49.9945205  43.4740537
  33.9462960  51.4129463  42.5677455  33.1416005  50.9540088  44.0756710
  33.3598798  49.1771549  41.2774903  34.0383115  48.5603027  41.6052295
  31.0575916  47.7844332  42.3454521  30.0139807  48.3102978  41.9435694
  31.3723563  46.5107114  42.0651308  32.2022256  46.1138272  42.4892025
  30.6232224  45.6529228  41.1388836  30.6814472  46.0750903  40.1369723
  31.0775794  44.6638721  41.1256054  29.1541858  45.4748450  41.5287574
  28.8304966  45.2039666  42.6834014  28.2520971  45.6081399  40.5607627
  28.5962418  45.8320426  39.6250695  26.7944682  45.6241085  40.7489427
  26.5914840  46.1900670  41.6623698  26.1677542  46.4309020  39.6047048
  25.0880856  46.4650582  39.7308345  26.5475489  47.4534774  39.6421099
  26.4840722  45.8756021  38.3449412  27.3807405  46.1932123  38.1039173
  26.1410042  44.2425265  40.9705213  25.0486483  43.9592848  40.4607477
  26.7708502  43.4096393  41.8138815  27.6167802  43.7584581  42.2410899
  26.3335858  42.0725133  42.2539944  25.2612625  41.9984148  42.0727595
  27.0306439  41.0060613  41.3701878  26.2561837  40.3481904  40.9727817
  27.5076454  41.4776954  40.5094820  28.0576720  40.1434375  42.0672889
  29.2343528  40.5565047  42.6395954  29.7599577  41.4149093  42.4692196
  29.7583467  39.5128077  43.3036827  30.6771618  39.5637036  43.8595363
  29.0064792  38.4153654  43.1413821  27.9167052  38.8081104  42.3592838
  27.0873643  38.1820130  42.0727706  26.5548559  41.9156098  43.7876726
  27.2719502  42.7416091  44.3742579  25.8960966  40.9615758  44.4836779
  25.0212652  39.9518529  43.9220870  25.5208667  39.3359467  43.1787173
  24.1531317  40.4319480  43.4700414  24.5637316  39.0780986  45.0919442
  25.2988850  38.2879829  45.2678963  23.5767765  38.6588426  44.9223171
  24.5755643  40.0654196  46.2538182  24.6608474  39.5581038  47.2178085
  23.6641819  40.6583304  46.2222313  25.7725738  40.9725133  45.9569714
  25.5389960  41.9827489  46.2796779  27.0098663  40.4838824  46.7360788
  27.6004239  39.4713792  46.3834073  27.3215646  41.1509596  47.8600056
  26.7036634  41.9172011  48.1251126  28.3281361  40.7442417  48.8742551
  28.3152681  39.6531934  48.9253451  29.7854750  41.1509845  48.5164817
  30.4338977  40.7179704  49.2726508  30.2711917  40.6407690  47.1566072
  29.7349973  41.1307599  46.3446423  31.3375287  40.8281481  47.0444858
  30.1051960  39.5657133  47.0966843  30.0298819  42.6625455  48.5486508
  29.8763610  43.0419881  49.5560186  31.0584480  42.8775929  48.2579926
  29.3518919  43.1457197  47.8542068  27.9701785  41.2714693  50.2828597
  27.4172462  42.3696757  50.4268574  28.3124704  40.5173572  51.3414240
  28.7918546  39.6330675  51.1377885  28.0063976  40.8206709  52.7632199
  26.9259078  40.7708853  52.9134929  28.7127802  39.8004124  53.6827305
  29.5537943  39.3374814  53.1593120  29.1291999  40.3224011  54.5452375
  27.7697947  38.7150958  54.2027570  26.8536017  39.1669114  54.5858543
  27.5109519  38.0502524  53.3779535  28.4434320  37.9008391  55.3193071
  27.8442882  37.0147241  55.4924182  29.4229507  37.5682222  54.9720372
  28.6351017  38.6340369  56.6567319  29.1897364  37.9644452  57.3224810
  29.2516847  39.5212212  56.5010373  27.3515396  39.0104978  57.2978532
  26.6791794  38.2489699  57.2300439  27.4806084  39.2078458  58.2895860
  26.9423862  39.8492280  56.8972569  28.4463422  42.2076987  53.2357621
  27.7987041  42.8180039  54.0962057  29.6012352  42.6394941  52.7472578
  30.0655490  42.0327443  52.0843126  30.3578270  43.7879950  53.2335972
  29.6819797  44.5164256  53.6786925  31.3295347  43.2671539  54.3128216
  30.7501299  42.6821807  55.0263755  32.0639861  42.5950857  53.8600483
  32.0678652  44.3643562  55.0931248  32.8622640  44.7781117  54.4736658
  31.3665630  45.1611343  55.3317767  32.6747614  43.8527098  56.4071677
  32.8508683  42.6609319  56.6480657  33.0052105  44.7254128  57.3284019
  33.2911196  44.3869762  58.2361056  32.6828567  45.6786507  57.2297746
  31.0575869  44.4171510  52.0226541  31.9091630  43.7767196  51.4032753
  30.6507847  45.6302063  51.6143862  29.9592345  46.1240382  52.1625493
  31.2029736  46.2756321  50.4073646  31.2873530  45.5265606  49.6151634
  30.3202621  47.4313621  49.9002399  30.4000966  48.2662630  50.5912912
  30.7331942  47.7840073  48.9518100  28.8282734  47.1172648  49.6915260
  28.3665997  46.9163242  50.6578690  28.3470089  48.0003731  49.2678522
  28.5495589  45.9333331  48.7649881  28.8897637  45.0229406  49.2545715
  27.4681588  45.8592273  48.6290616  29.2182734  46.0827208  47.4569028
  30.0277911  46.6832977  47.4018189  28.8949790  45.4746170  46.3333996
  27.8771449  44.6708080  46.2437456  27.3292667  44.4670684  47.0557042
  27.7458293  44.1168625  45.3988063  29.6189735  45.6744112  45.2801766
  30.4148744  46.2977522  45.3293310  29.3377826  45.2847705  44.3847930
  32.6232626  46.8033828  50.6166685  33.3542089  46.9178831  49.6391780
  32.9724742  47.1399634  51.8576255  32.2886813  46.9915705  52.5809505
  34.1293166  47.9702852  52.2189517  34.7649024  48.1089304  51.3460590
  33.6459773  49.3469173  52.6972779  33.1489315  49.2388982  53.6611930
  34.5025041  50.0133445  52.8195423  32.7315528  49.9085967  51.7706235
  33.2699453  50.2450504  51.0281862  34.9551631  47.3401157  53.3380028
  34.3910165  46.9166207  54.3469622  36.2820801  47.3145001  53.1852316
  36.6751613  47.7226980  52.3402734  37.2413486  46.7906027  54.1750773
  36.7499430  46.7610335  55.1478770  37.6889677  45.3464811  53.8484884
  38.3663634  45.0250962  54.6405597  36.5067342  44.3695304  53.8409723
  35.8430804  44.5726541  53.0007713  36.8808954  43.3490406  53.7564174
  35.9489979  44.4563300  54.7736895  38.4413913  45.2242427  52.5177600
  39.3419020  45.8368874  52.5391791  38.7366583  44.1857961  52.3610843
  37.8027855  45.5382832  51.6929526  38.4495635  47.7255949  54.3185459
  38.7541384  48.5106454  53.4182767  39.1348422  47.6487461  55.4628697
  38.8752716  46.9382340  56.1311016  40.2360052  48.5420368  55.8401404
  40.5017643  49.1780733  54.9949686  39.7934970  49.4537213  56.9943369
  39.4023232  48.8400831  57.8076870  40.6745078  49.9683672  57.3802180
  38.7628496  50.5066231  56.6215268  37.3860986  50.2680004  56.8080559
  37.0495502  49.3137959  57.1899811  36.4447922  51.2707554  56.4947524
  35.3906534  51.0833949  56.6244953  36.8825356  52.5261910  56.0163550
  35.9900130  53.5066762  55.7138607  35.0815271  53.1579145  55.6415019
  38.2605144  52.7632884  55.8362863  38.5869654  53.7243722  55.4696863
  39.1938007  51.7460518  56.1128130  40.2472189  51.9193293  55.9447470
  41.4780191  47.7338452  56.2360736  41.4343470  46.9043514  57.1496251
  42.5882826  47.9911855  55.5443071  42.5545787  48.7514840  54.8700112
  43.8429124  47.2265531  55.6007815  43.8395831  46.5950103  56.4889149
  43.9585126  46.2995810  54.3613309  44.9213527  45.7890453  54.4213149
  42.8790340  45.2039548  54.3786931  41.8861200  45.6291633  54.2359337
  43.0735970  44.4754920  53.5910972  42.9094911  44.6707994  55.3302624
  43.9199093  47.0988651  53.0386613  42.8889320  47.3541614  52.7892551
  44.4700326  48.0255327  53.1685440  44.5592186  46.3631331  51.8582093
  44.0416261  45.4225549  51.6720233  44.4968435  46.9888096  50.9675938
  45.6088112  46.1679295  52.0749987  45.0587735  48.1646313  55.7264702
  44.9275666  49.3924189  55.7054380  46.2559241  47.5881804  55.8555455
  46.3050317  46.5775491  55.8534120  47.5210551  48.3208180  56.0176112
  47.3821286  49.3621749  55.7338007  47.9572363  48.2889355  57.4932449
  48.1755855  47.2601072  57.7832457  49.1938916  49.1417406  57.7429798
  49.0243767  50.1620900  57.3990119  49.4263731  49.1467297  58.8079902
  50.0321518  48.7054575  57.2061655  46.9297076  48.7809694  58.3345721
  46.2522387  48.0762018  58.3494363  48.5831445  47.7092341  55.0941132
  48.9386484  46.5462649  55.2652307  49.0500959  48.4694902  54.0989430
  48.8112003  49.4553319  54.1028069  49.7455439  47.9757940  52.9052812
  49.8937264  46.8988095  53.0010864  48.8431913  48.2298330  51.6893138
  48.7281937  49.3031404  51.5313741  49.2953109  47.7866985  50.8003837
  47.8619160  47.7822526  51.8494090  51.1300004  48.6193869  52.6901030
  51.3447659  49.7954990  52.9932259  52.0720911  47.8304255  52.1711433
  51.7984055  46.8869168  51.9104568  53.4314434  48.2463550  51.8079896
  53.8101001  48.9282817  52.5702278  54.3002189  46.9758853  51.7942811
  54.2700525  46.5147378  52.7826744  53.8445374  46.2805344  51.0903725
  55.7694317  47.1710432  51.3766534  55.8214533  47.6924355  50.4233913
  56.5603121  47.9512304  52.4281000  56.5362345  47.4278632  53.3824079
  57.5914945  48.0633394  52.0940542  56.1366423  48.9451344  52.5457009
  56.4198175  45.8016520  51.2014160  55.8872013  45.2440370  50.4300217
  57.4489554  45.9241540  50.8725775  56.3958627  45.2450221  52.1373533
  53.4686518  48.9731486  50.4506056  52.8554092  48.5199875  49.4860893
  54.2146823  50.0745804  50.3596252  54.6732439  50.4125792  51.1995939
  54.6001839  50.7009287  49.0861726  53.7561658  50.6564442  48.3968892
  54.9412357  52.1819346  49.3532924  55.7316987  52.2147096  50.1046696
  55.3343582  52.6324709  48.4410594  53.7342436  53.0073098  49.8529524
  53.1621744  52.4354304  50.5822309  54.1860349  54.2941835  50.5425404
  54.7381417  54.9176466  49.8455383  53.3163886  54.8414158  50.9016900
  54.8195599  54.0461342  51.3939994  52.8052754  53.3969730  48.7009582
  52.4368186  52.5001128  48.2061813  51.9526312  53.9544174  49.0876980
  53.3413868  54.0100103  47.9767252  55.7664465  49.9262931  48.4331968
  56.8510986  49.8548417  49.0161173  55.5638105  49.3598512  47.2380218
  54.6576760  49.4680272  46.7885707  56.4972735  48.4283406  46.5758646
  57.4079117  48.3407120  47.1673255  55.8539925  47.0248958  46.5585056
  55.5976107  46.7551873  47.5843005  54.9251134  47.0680813  45.9856168
  56.7316193  45.9036034  45.9760086  57.7555768  46.1976815  45.3195710
  56.3616259  44.7216917  46.1705451  56.9131553  48.9268370  45.1730285
  56.1598022  48.8418747  44.1998919  58.1326697  49.4679244  45.0618117
  58.6882575  49.5912546  45.9013948  58.7352730  49.8811992  43.7802139
  57.9726143  50.3870728  43.1903747  59.8937422  50.8667290  43.9970908
  60.3589737  51.0866777  43.0359048  59.4011867  52.1876202  44.5857772
  58.9435803  52.0210004  45.5597070  60.2408535  52.8734489  44.6941466
  58.6608834  52.6294600  43.9205333  60.8753956  50.3294379  44.8562249
  61.5840980  49.9362447  44.3120234  59.2439584  48.7204944  42.9222083
  59.4669585  48.9116764  41.7238267  59.4313714  47.5257432  43.4880954
  59.0889646  47.3762945  44.4360793  59.8208792  46.3375152  42.7351745
  60.6591385  46.5774103  42.0814548  60.1328966  45.5645541  43.4374070
  58.6744775  45.7900595  41.8852435  58.8780735  45.4918457  40.7092506
  57.4807052  45.6838885  42.4695053  57.4181077  45.9505778  43.4513875
  56.3007285  45.0803495  41.8546173  56.5455203  44.0651746  41.5686031
  55.2018839  44.9969569  42.9174692  55.0264947  45.9824008  43.3491713
  54.2751924  44.6327467  42.4730575  55.5084530  44.3136750  43.7072151
  55.7946778  45.8146538  40.5959155  55.4434933  46.9946331  40.6534265
  55.6730661  45.1024636  39.4681359  56.0887664  44.1792968  39.4489511
  54.8935845  45.5770680  38.3083286  55.2904560  46.5486951  38.0087117
  55.0259296  44.6225307  37.0991799  54.9345297  43.5908670  37.4428236
  54.1904512  44.8155803  36.4232162  56.3152587  44.7673114  36.2753447
  57.2792714  45.4166017  36.7436191  56.3219891  44.2851810  35.1162962
  53.4040500  45.8115788  38.6435519  52.8816181  46.8922723  38.3663544
  52.7471273  44.8114329  39.2464904  53.2788910  44.0015251  39.5180588
  51.2993559  44.7503526  39.5016245  50.8299183  45.6727388  39.1532583
  50.6737698  43.5697514  38.7228701  51.2970107  42.6860792  38.8663541
  49.6985057  43.3560909  39.1651936  50.4302333  43.8045611  37.2245268
  50.0338928  44.9244783  36.8397642  50.5163489  42.8297425  36.4359239
  50.9724582  44.5981299  41.0046348  51.5161257  43.7201787  41.6840533
  50.0650210  45.4489516  41.5013953  49.7328201  46.1807763  40.8771113
  49.4585960  45.4261292  42.8531011  50.2381354  45.5990954  43.5950548
  48.4529342  46.5926470  42.9221395  47.7616386  46.5012881  42.0863471
  47.6178874  46.7030635  44.1974977  48.2667653  46.8203661  45.0611687
  46.9687801  47.5761979  44.1261925  46.9956826  45.8174641  44.3238838
  49.1517995  47.8114825  42.7930163  49.2727004  47.9469610  41.8213017
  48.7607630  44.0964100  43.2075707  48.0139207  43.5542591  42.3881426
  48.9095912  43.6087839  44.4541598  49.4689601  44.1335158  45.1187398
  48.3357281  42.3222773  44.9230235  47.4326424  42.1427542  44.3390445
  49.2886580  41.1385454  44.6188000  49.5151463  41.1555193  43.5528847
  50.6164109  41.1941746  45.3699633  50.4623243  41.2678884  46.4459933
  51.1930626  40.2941240  45.1603035  51.1878402  42.0464360  45.0132580
  48.6718767  39.7694499  44.9298800  47.7038902  39.6797825  44.4518163
  49.3208289  38.9879683  44.5360189  48.5626733  39.6272855  46.0055429
  47.8918271  42.3400178  46.3980508  48.5372276  42.9334976  47.2666295
  46.7564839  41.6873815  46.6760089  46.2769248  41.2391662  45.9006492
  46.1840469  41.4820688  48.0180457  46.6987475  42.1388563  48.7188562
  44.6844776  41.8697446  48.0175354  44.1732618  41.2256051  47.3014141
  44.0252837  41.6333054  49.3902029  44.5929003  42.1164795  50.1834506
  43.0074651  42.0236782  49.3921726  43.9693969  40.5641648  49.6010250
  44.4422506  43.3297021  47.5596983  44.7529862  43.4332856  46.5194551
  43.3700064  43.5293406  47.5877471  45.1549811  44.4141377  48.3831594
  46.2362250  44.3128919  48.2921903  44.8700340  45.3958966  48.0039511
  44.8693110  44.3467153  49.4320255  46.4191798  40.0400268  48.5084082
  46.3259374  39.0828158  47.7376102  46.7416093  39.8902080  49.7954116
  46.7435077  40.6977720  50.3982031  46.9572150  38.6061331  50.4693745
  47.6703283  38.0279595  49.8818770  47.6002225  38.8786515  51.8400659
  47.7397134  37.9354068  52.3661242  48.5771265  39.3398151  51.6905180
  46.8038181  39.7566033  52.6154077  47.1621015  39.8173469  53.5255390
  45.6670065  37.7729997  50.6104059  44.5963422  38.2827001  50.9557016
  45.7659511  36.4523045  50.4077994  46.6223258  36.0993080  49.9942148
  44.6295267  35.5212801  50.5734911  43.7893851  35.9295137  50.0092469
  44.9364381  34.1363101  49.9641167  43.9932610  33.5902241  49.9561912
  45.2466768  34.2581643  48.9249980  46.0018085  33.3032055  50.7101147
  46.9891005  33.6285030  50.3764324  45.9407638  33.5025215  51.7803413
  45.8539630  31.7802914  50.5214215  44.7162251  31.2542974  50.4316757
  46.8794027  31.0601012  50.5384914  44.1282104  35.3957955  52.0278929
  43.0035765  34.9423395  52.2510145  44.9414372  35.8019300  53.0114093
  45.8465533  36.1590898  52.7522187  44.5550025  35.8707144  54.4289369
  43.9174162  35.0121112  54.6351879  45.7942057  35.7267138  55.3410033
  45.4513577  35.6117088  56.3704076  46.3347668  34.8198331  55.0646709
  46.7536501  36.9231881  55.2830509  47.1666197  36.9936791  54.2765630
  46.1835896  37.8279423  55.4831623  47.9109706  36.8315566  56.2911554
  48.6295068  35.7997216  56.3080861  48.1362117  37.8222015  57.0361852
  43.6994757  37.1098091  54.7730521  43.0855905  37.1406101  55.8411338
  43.5930631  38.0987954  53.8762018  44.1458948  38.0447576  53.0294219
  42.6918764  39.2494888  54.0355713  42.3579595  39.3111710  55.0713790
  43.4037287  40.5800447  53.7236356  43.8684263  40.5099584  52.7385263
  42.6421131  41.3602632  53.6653585  44.4634959  41.0456490  54.7345317
  45.0140837  40.2423698  55.5231571  44.7676797  42.2582578  54.7041004
  41.4259096  39.1251399  53.1661215  40.3260649  39.3884988  53.6632310
  41.5650456  38.7458885  51.8843476  42.4999914  38.5095627  51.5710968
  40.4991787  38.8333215  50.8658405  40.3589866  39.8864968  50.6423469
  40.9666537  38.1773675  49.5577503  41.9114694  38.6326570  49.2565737
  41.1581266  37.1181662  49.7390822  40.0015468  38.3046230  48.4097450
  39.0595307  37.3951429  48.0660859  38.8820851  36.4580654  48.5804756
  38.3282539  37.8517101  46.9862283  37.5241090  37.3527662  46.6112665
  38.7769373  39.0830171  46.5606582  38.3933912  39.9343335  45.5131353
  37.6068167  39.6407988  44.8323316  39.0518064  41.1665331  45.3581456
  38.7643894  41.8333395  44.5578881  40.0778885  41.5323517  46.2481660
  40.5836376  42.4793118  46.1237386  40.4598266  40.6658013  47.2919335
  41.2611801  40.9444528  47.9582252  39.8255898  39.4159264  47.4734945
  39.1463894  38.2176726  51.3071990  39.1016368  37.0158796  51.6042769
  38.0322044  38.9860670  51.3043745  37.9673087  40.4285977  51.0943975
  37.9333204  40.6391448  50.0238640  38.8066111  40.9455274  51.5603244
  36.6706794  40.8871125  51.7571613  36.2754473  41.7914621  51.2950552
  36.8348676  41.0354343  52.8257584  35.7587739  39.6852402  51.5402530
  35.3736348  39.7046781  50.5215111  34.9378419  39.6594074  52.2562458
  36.7130428  38.5004865  51.7169145  36.7656810  38.2502457  52.7773606
  36.2238200  37.2771213  50.9327459  36.2262778  37.2525607  49.7025697
  35.7220250  36.2746798  51.6535214  35.7035213  36.3608291  52.6599124
  35.3689463  34.9515447  51.1091023  36.1953094  34.6163692  50.4810878
  35.2157595  33.9301975  52.2498321  34.7781031  33.0065428  51.8690875
  36.5660277  33.5939802  52.8824945  37.0413689  34.4961151  53.2675294
  36.4201135  32.8922079  53.7034313  37.2178200  33.1378867  52.1372276
  34.3972832  34.4468405  53.2762975  33.4681161  34.2220035  53.0857124
  34.1272768  34.9329777  50.2111531  33.8467653  33.8970280  49.6051772
  33.3904062  36.0431980  50.0783277  33.6525717  36.8624022  50.6080804
  32.2552920  36.1635989  49.1508676  32.1463104  35.2170972  48.6256154
  30.9383434  36.3346155  49.9375939  30.1368401  35.9369283  49.3203495
  30.9758960  35.7065278  50.8298397  30.5453378  37.7546903  50.3620802
  31.4130796  38.6431607  50.4623064  29.3246900  37.9528992  50.5978846
  32.4563986  37.1877663  48.0095895  31.5239280  37.3934158  47.2256409
  33.6690296  37.7479424  47.8462130  34.4039597  37.4942898  48.4981612
  34.0642039  38.5758837  46.6907926  33.1737820  39.0765873  46.3194577
  35.0626573  39.6690033  47.1174957  35.9048951  39.1865293  47.6146451
  35.4529960  40.1276388  46.2083652  34.6050296  40.7997291  48.0034137
  33.5211055  40.8264074  48.8174256  32.8116336  40.0139439  48.9445266
  33.4871096  42.0201459  49.5159677  32.7983579  42.2388139  50.2308720
  34.5586255  42.8221641  49.2015002  34.9754247  44.0803505  49.6584717
  34.4012509  44.5934049  50.4134037  36.1562349  44.6422956  49.1451672
  36.4957192  45.6069827  49.4970438  36.9077694  43.9295901  48.1934799
  37.8304882  44.3464652  47.8148302  36.4836191  42.6593936  47.7511377
  37.0835695  42.1084428  47.0413751  35.2951930  42.0704671  48.2390361
  34.6884022  37.7122376  45.5574826  35.5356492  36.8610545  45.8423119
  34.3283349  37.9177782  44.2696217  33.3706330  38.9122498  43.8063105
  33.7491457  39.9263908  43.9406731  32.4425221  38.7741581  44.3564955
  33.1250417  38.6210428  42.3247395  33.8498962  39.1629780  41.7162924
  32.1093803  38.8671837  42.0183143  33.3868418  37.1196374  42.2500757
  33.5922964  36.7791909  41.2361898  32.5291852  36.5862000  42.6593355
  34.5822741  36.9521204  43.1899350  34.5712084  35.9396735  43.5957362
  35.9144830  37.1571118  42.4422117  36.4666812  38.2566862  42.3836034
  36.4219921  36.0805268  41.8277826  35.8726592  35.2319970  41.8373915
  37.8243668  35.9292399  41.3826106  38.2651387  36.9138295  41.2275062
  38.6145437  35.2221076  42.5116794  38.1098895  34.2890181  42.7657178
  40.0454411  34.8842519  42.1074890  40.5627568  35.7894245  41.7887158
  40.5740341  34.4432329  42.9536885  40.0342681  34.1448341  41.3072149
  38.7085519  36.0848556  43.7812368  37.7225371  36.2264831  44.2202599
  39.3256455  35.5879330  44.5305188  39.1419787  37.0585636  43.5503742
  37.9159713  35.1626247  40.0431715  37.1130173  34.2693871  39.7951605
  38.8611057  35.5254186  39.1634710  39.4884363  36.2699280  39.4451967
  39.0502080  35.0241340  37.7858565  38.5558991  34.0556443  37.6955428
  38.3872223  36.0039676  36.7917743  38.4293631  35.5612156  35.7962615
  37.3371028  36.1303527  37.0477210  39.0552814  37.3903255  36.7331212
  38.6132138  38.0300302  37.4963145  40.1132256  37.2888927  36.9718956
  38.9789926  38.2344066  35.1267973  37.2069555  38.5553341  34.9576655
  36.8714095  39.1991619  35.7675590  37.0263716  39.0622622  34.0099329
  36.6585558  37.6136843  34.9717144  40.5375924  34.8178253  37.4000461
  41.4503842  35.1328548  38.1687050  40.7856601  34.2954305  36.1908931
  39.9978320  33.9922799  35.6293275  42.1122714  34.1921515  35.5568626
  42.7004729  33.4745292  36.1298358  41.9625703  33.6438174  34.1236692
  41.1032570  34.1278182  33.6563746  42.8498532  33.9041517  33.5443999
  41.7985037  32.1144245  34.0679020  42.7778975  31.6549805  34.2190706
  41.1591832  31.7891395  34.8902289  41.2016047  31.6232170  32.7349750
  41.3212427  32.3193575  31.6907430  40.6223516  30.5175346  32.6946432
  42.9191657  35.5121846  35.5024654  42.4391959  36.5686241  35.0773278
  44.2104168  35.4039305  35.8352953  44.5383737  34.5115715  36.1718548
  45.2188426  36.4672077  35.7471308  44.7239239  37.4391652  35.7378411
  46.0709220  36.3791265  37.0204569  46.6182980  35.4363465  37.0238963
  46.7860539  37.2028999  37.0478829  45.4393983  36.4333416  37.9061682
  46.0966707  36.3865826  34.4701916  47.1534835  37.0124257  34.4073587
  45.6996231  35.5677201  33.4856688  44.8105710  35.1105263  33.6089939
  46.4183498  35.2501625  32.2419934  45.7045096  34.7268490  31.6039056
  46.8358328  36.5063221  31.4561690  47.6430409  37.0382903  31.9585922
  47.1836172  36.2102440  30.4657358  45.9783486  37.1701994  31.3397232
  47.5676030  34.2528617  32.4876665  47.5223342  33.1278546  31.9861965
  48.5747616  34.6398947  33.2773852  48.4970312  35.5572016  33.7024991
  49.6131801  33.7311076  33.7813945  49.7816451  32.9830181  33.0076402
  50.9388626  34.5001318  33.9851363  50.7424283  35.4586824  34.4669525
  51.5964370  33.9247825  34.6371583  51.6930933  34.7340560  32.6811212
  51.3274443  34.2578448  31.6158948  52.7935413  35.4467760  32.7019683
  53.2716934  35.5622291  31.8273114  53.1533907  35.8616535  33.5508191
  49.1467023  32.9611277  35.0427739  48.3557242  33.4926220  35.8236760
  49.6248540  31.7183450  35.2714402  50.5026181  30.9626794  34.3819905
  51.4855058  31.4286615  34.2964779  50.0410319  30.8719716  33.3977201
  50.6287792  29.5725327  34.9991788  51.4793265  29.5478069  35.6787604
  50.7186141  28.8008351  34.2403960  49.3297189  29.4322909  35.7856968
  49.4022387  28.6672842  36.5598316  48.5169690  29.2022365  35.0960401
  49.1428693  30.8430755  36.3522885  48.0843853  31.0160151  36.5482306
  49.9154513  30.9944785  37.6792777  49.6106487  30.3043729  38.6550371
  50.9123032  31.8829261  37.7218209  51.1240821  32.3851285  36.8731477
  51.7250500  32.2328820  38.8901028  51.0458836  32.4542874  39.7129293
  52.6122827  31.0506713  39.3511818  53.3029574  31.4053280  40.1146794
  51.9442968  30.3465774  39.8437274  53.4432569  30.2911939  38.2922225
  52.9129099  30.2544720  37.3441540  54.3772722  30.8292898  38.1259352
  53.7438415  28.8407572  38.6998003  52.9411246  28.1553444  39.3291653
  54.8908280  28.3046921  38.3421546  55.1115425  27.3578410  38.6363660
  55.5329519  28.7987196  37.7273457  52.5250078  33.5171187  38.6093546
  53.1548588  33.6354054  37.5573154  52.4684262  34.4918271  39.5266658
  51.9727228  34.2758398  40.3832776  53.4605094  35.5845960  39.5999417
  53.5616415  36.0397494  38.6134952  53.0577282  36.6857650  40.6145836
  53.9221200  37.3391120  40.7475577  51.9517694  37.5617200  40.0097404
  51.0604598  36.9672894  39.8392156  51.7145649  38.3919494  40.6746571
  52.2881815  37.9766417  39.0580227  52.6955798  36.1176140  42.0099780
  51.7749984  35.5406442  41.9456235  53.4881550  35.4441671  42.3372329
  52.5197386  37.1796192  43.1033402  51.6651066  37.8191573  42.8840589
  52.3447894  36.6861585  44.0600005  53.4204046  37.7865590  43.1822551
  54.8252972  35.0045271  39.9740634  54.8866000  33.9133269  40.5410234
  55.9156835  35.7364927  39.7357414  55.8281299  36.6430509  39.2852657
  57.2293709  35.3407437  40.2508252  57.0526024  34.7644904  41.1577176
  57.9589345  34.4056451  39.2671846  58.8745338  34.0490732  39.7401781
  57.3317402  33.5315757  39.0894934  58.3223472  34.9911247  37.9267261
  59.5824542  35.3514126  37.5011460  60.4394497  35.2859560  38.0330591
  59.5044863  35.7085630  36.2080582  60.3450250  36.0236867  35.5983669
  58.2415673  35.5710140  35.7656665  57.4799143  35.1333565  36.8587235
  56.4242693  34.8948434  36.8506823  58.0790404  36.5316944  40.7011502
  57.8466634  37.6794410  40.3167735  59.0324481  36.2458847  41.5853238
  59.1437100  35.2765907  41.8651488  59.9064222  37.2336210  42.2117086
  60.2576675  37.9466683  41.4651829  59.3422929  37.7734304  42.9667735
  61.1212747  36.5796096  42.8619698  61.7103469  35.6696606  42.2837726
  61.4956923  37.0521408  44.0540433  60.9609125  37.8317947  44.4213692
  62.7439352  36.7006623  44.7584244  63.5666941  37.1686811  44.2238076
  62.7010286  37.2900770  46.1901360  61.7731564  36.9586359  46.6611268
  63.8506696  36.7905809  47.0814390  64.8153601  36.9468320  46.5983623
  63.8276313  37.3308864  48.0284892  63.7318445  35.7305213  47.3085878
  62.6791099  38.8365285  46.1798596  61.7985719  39.1855274  45.6407219
  62.5736738  39.1870314  47.2075392  63.9196437  39.5042487  45.5661697
  64.0338725  39.2300566  44.5187289  63.7984667  40.5830856  45.6172410
  64.8161335  39.2322059  46.1218191  63.0811448  35.1989870  44.7615482
  64.1427945  34.8219761  44.2580260  62.2091251  34.3337358  45.2920913
  61.3293182  34.6783726  45.6600624  62.4660340  32.8878678  45.3028932
  63.5094084  32.7035146  45.5529418  61.8489502  32.4185558  46.0683766
  62.1606713  32.2162452  43.9614642  62.9675418  31.4492607  43.4301598
  60.9982748  32.5391062  43.3997763  60.4340051  33.2516924  43.8422675
  60.4164432  31.8571286  42.2488369  60.9385497  32.1642550  41.3427446
  60.5235115  30.7786785  42.3748920  58.9350576  32.1942788  42.0965936
  58.5215812  33.3132868  42.4096473  58.1537425  31.2443529  41.5801525
  58.5573271  30.3238331  41.4680166  56.7141418  31.3831254  41.3505527
  56.5426151  32.3545495  40.9049838  56.3951126  30.6249526  40.6355903
  55.8406630  31.2422183  42.6057298  56.1591140  30.4477102  43.4912261
  54.6917909  31.9276139  42.6266174  54.5327557  32.5914528  41.8717798
  53.5682499  31.7132563  43.5598902  53.6703329  30.6984404  43.9365291
  53.6419940  32.6823110  44.7795203  54.3467212  33.4813907  44.5446462
  52.3065199  33.3603437  45.1541309  51.5665500  32.6137453  45.4455216
  52.4509593  34.0652158  45.9724636  51.9256452  33.9368235  44.3102624
  54.1919783  31.8893922  45.9892859  53.5434966  31.0320796  46.1680502
  55.1805751  31.5098926  45.7352857  54.3008186  32.6607042  47.3113405
  53.3098163  32.8142175  47.7386028  54.8948033  32.0828091  48.0204017
  54.7720745  33.6250934  47.1452623  52.2333445  31.8074745  42.7850063
  52.0752764  32.7304903  41.9781666  51.2820712  30.8675405  42.9864984
  51.4102705  29.6705994  43.8125540  51.3422301  29.9458136  44.8662472
  52.3434953  29.1402912  43.6196096  50.2389518  28.7685521  43.4348374
  49.9305855  28.1386805  44.2696843  50.5046050  28.1612720  42.5678664
  49.1590832  29.7733921  43.0501593  48.6754668  30.1461553  43.9547845
  48.4254223  29.3385290  42.3740773  49.9498329  30.8941608  42.3710427
  50.0601416  30.6530084  41.3140061  49.2222208  32.2397743  42.5022775
  49.3198958  32.9110400  43.5317219  48.4891650  32.6293839  41.4529137
  48.3849143  31.9961078  40.6722691  47.8185949  33.9359904  41.3647716
  47.6206160  34.2712814  42.3842518  48.7494839  34.9845343  40.7178814
  49.7107971  34.9363108  41.2266012  48.9878572  34.7329385  39.2224906
  48.0782889  34.9163957  38.6566212  49.7667456  35.3928173  38.8458241
  49.2837486  33.7013340  39.0595961  48.2087273  36.4117744  40.8780282
  47.9694888  36.6049931  41.9228376  48.9584096  37.1321706  40.5611775
  47.3153382  36.5577906  40.2728172  46.4675548  33.8674506  40.6493123
  46.2848851  33.1682950  39.6435321  45.5214030  34.6639022  41.1488333
  45.7551938  35.1871318  41.9918984  44.2559941  34.9974219  40.4844863
  44.3404712  34.7735959  39.4229958  43.1243620  34.1512555  41.0962303
  43.1228353  34.2805471  42.1784855  42.1826273  34.5160267  40.7026138
  43.1885488  32.6485065  40.7797112  44.1819912  32.2585615  40.9900356
  42.4754407  32.1227287  41.4159185  42.8179922  32.3957137  39.3149809
  41.7632076  32.6423037  39.1797074  43.3954057  33.0535951  38.6667748
  43.0278896  30.9963912  38.9155099  42.3397950  30.3278448  39.2439790
  43.9928496  30.5541039  38.1273769  45.0606940  31.2461304  37.8460772
  45.3236400  31.9855459  38.4926969  45.8029623  30.7587331  37.3788628
  43.9148599  29.3790457  37.5824582  43.1359504  28.7588569  37.7773254
  44.6641069  29.0552521  36.9751659  43.9964611  36.5084925  40.5588678
  44.8441075  37.2688288  41.0225037  42.8617512  36.9667944  40.0300283
  42.2293527  36.2834318  39.6236791  42.5833848  38.3838026  39.7406371
  43.1441492  39.0203701  40.4255609  43.0947447  38.6185532  38.3060573
  44.1640934  38.4070448  38.3093375  42.6353604  37.8899799  37.6347089
  42.9285779  40.0285385  37.7260982  42.8828722  40.7662703  38.5288017
  43.8043708  40.2439443  37.1122524  41.6815296  40.1251391  36.8396676
  41.6715494  39.3141247  36.1107042  40.7973444  40.0233392  37.4638660
  41.6170276  41.4668788  36.1084847  40.5949230  41.6098734  35.7455099
  41.8392844  42.2619508  36.8233153  42.5573963  41.5421443  34.9636685
  42.3963229  40.7739699  34.3113597  42.4297643  42.4238098  34.4700013
  43.5210623  41.5166223  35.2611771  41.0969700  38.6809410  39.9494771
  40.2644703  37.8545823  39.5969898  40.7469239  39.8018044  40.5784778
  41.4863419  40.4261822  40.8862318  39.3536794  40.1312118  40.9361717
  39.0042594  39.4019336  41.6685737  39.3200290  41.5057657  41.6018738
  39.9862331  41.5002367  42.4657486  39.6606222  42.2633366  40.8949809
  38.0105943  41.8120081  42.0281185  37.6055958  42.4332534  41.3841830
  38.3973625  40.1022205  39.7316379  38.7157480  40.6558818  38.6782446
  37.2150380  39.4831551  39.8790168  37.0081180  39.0791405  40.7903777
  36.1924711  39.3905203  38.8113564  36.7192810  39.3985859  37.8600424
  35.4567623  38.0374498  38.9236919  36.2008788  37.2442608  38.9998757
  34.8658363  38.0398686  39.8363518  34.5315905  37.7152044  37.7350887
  33.7260378  38.4499393  37.7194081  35.0841800  37.7979843  36.8002677
  33.8836076  36.3208133  37.8190352  33.5319998  36.1532585  38.8378809
  33.0132918  36.3269140  37.1654224  34.7632677  35.2204692  37.3640029
  35.2894966  35.3637607  36.5164441  34.8504325  33.9980182  37.8662898
  34.1622577  33.6071955  38.8978463  33.5375927  34.2351092  39.3631297
  34.2441176  32.6585494  39.2456130  35.6388759  33.1331567  37.3003411
  36.1028770  33.3901458  36.4390334  35.8670291  32.2580453  37.7580260
  35.2583866  40.6145930  38.7545115  34.7366493  40.9159850  37.6794683
  35.1418096  41.3468641  39.8662529  35.6406115  41.0125439  40.6753558
  34.5526677  42.6954686  39.9673328  33.9845674  42.9134211  39.0621062
  33.5959798  42.7894653  41.1750504  34.1826634  42.6170630  42.0796364
  33.2280628  43.8140107  41.2122109  32.3594568  41.8749060  41.2311296
  32.0662177  41.1160193  40.2762987  31.6563535  41.9686382  42.2664498
  35.6647821  43.7714354  40.1221355  36.8307876  43.4294360  40.3377155
  35.3315601  45.0713461  40.0523236  34.3580747  45.3109584  39.9448924
  36.3021563  46.1814716  40.1632279  37.3065691  45.7671927  40.0612235
  36.1155231  47.1780820  39.0061942  36.0754465  46.6327176  38.0656707
  35.1806645  47.7247528  39.1342972  37.2954614  48.1599203  38.9543885
  37.2931825  48.7810740  39.8508929  38.2048594  47.5654136  38.9550817
  37.4050999  49.2452927  37.5091295  35.9020318  50.2325149  37.7134224
  35.8991390  50.7051516  38.6955176  35.8664695  51.0019306  36.9421198
  35.0294998  49.5876612  37.6132640  36.2382830  46.9035034  41.5227968
  35.1591945  47.2716410  41.9988017  37.4007897  47.1285918  42.1411834
  38.2578946  46.9007950  41.6454465  37.5593957  47.7153255  43.4807551
  36.6015506  47.6918458  43.9956134  38.5544987  46.8443385  44.2974225
  39.3647984  46.5315615  43.6360554  39.2020386  47.5934206  45.4757381
  38.4325573  47.9767028  46.1449406  39.8570113  46.9224463  46.0309231
  39.8127841  48.4215653  45.1138192  37.9009016  45.5778457  44.9071816
  38.6686335  45.0273558  45.4530391  37.1371632  45.8768437  45.6261226
  37.2716151  44.5910049  43.9173739  37.9729701  44.3743359  43.1115965
  37.0281814  43.6646775  44.4383100  36.3489619  44.9993573  43.5081269
  37.9868418  49.1930252  43.3808184  38.8900544  49.5336871  42.6185783
  37.3532797  50.0635032  44.1725096  36.6240765  49.6901202  44.7707056
  37.8451194  51.4050475  44.5271670  38.3484495  51.8371487  43.6640839
  36.6489222  52.3083341  44.9093710  35.9409460  52.3155025  44.0802782
  36.1516418  51.8651198  45.7736449  37.0167984  53.7722137  45.2395232
  37.7527704  53.7823134  46.0450040  37.4776385  54.2210956  44.3568613
  35.8103095  54.6299770  45.6800939  34.8003173  54.0890317  46.1902089
  35.8473269  55.8808190  45.5720574  38.8723212  51.3103135  45.6707480
  38.6378189  50.6076639  46.6583120  39.9931994  52.0269241  45.5471971
  40.1196464  52.5713188  44.6985158  41.1204787  52.0265787  46.4843524
  40.8462206  51.4574740  47.3725902  42.3079035  51.3147038  45.7999886
  41.9365037  50.3474996  45.4574391  42.6133789  51.8760822  44.9152476
  43.5382903  51.0651480  46.6995800  43.2052274  50.8441056  47.7119151
  44.3234834  49.8591630  46.1751569  44.6944555  50.0614551  45.1696141
  45.1640428  49.6487228  46.8352352  43.6806124  48.9802713  46.1462126
  44.5256589  52.2352457  46.7501606  44.0526375  53.1268149  47.1515000
  45.3668641  51.9783619  47.3939540  44.8968990  52.4491160  45.7489819
  41.4560269  53.4642948  46.9118648  41.6369198  54.3392209  46.0617080
  41.5463960  53.7027382  48.2251630  41.3685084  52.9274705  48.8586073
  41.8948387  55.0019095  48.8189899  42.1858226  55.7071670  48.0396637
  41.0160486  55.4045418  49.3222987  43.0272382  54.8991883  49.8474829
  42.9512024  54.0977474  50.7785916  44.0746866  55.7151098  49.6928209
  44.0531782  56.3720720  48.9263839  45.2186952  55.7981965  50.6237230
  45.3242755  54.8366858  51.1275441  46.5392599  56.0599527  49.8684777
  46.4534374  56.9918285  49.3117835  47.7384624  56.1696174  50.8215089
  47.8097693  55.2737581  51.4392153  48.6582784  56.2851509  50.2481205
  47.6334679  57.0452401  51.4634370  46.8414921  54.9332907  48.8683340
  46.0513415  54.8672701  48.1205040  47.7783293  55.1400755  48.3503455
  46.9246290  53.9787968  49.3874275  44.9669929  56.8556018  51.7074557
  44.6217383  57.9969541  51.3978182  45.1590513  56.4765195  52.9737197
  45.4901082  55.5310961  53.1417014  44.8443398  57.2671432  54.1719486
  44.4084107  58.2208548  53.8710469  43.8031163  56.5312324  55.0520333
  44.2006497  55.5453938  55.2910732  43.5692794  57.2889339  56.3748553
  43.2315847  58.3057164  56.1647592  42.8168839  56.7865440  56.9803845
  44.4895812  57.3330937  56.9586550  42.4573001  56.3417210  54.3082919
  41.9194766  57.2890914  54.2885448  42.6397776  56.0388443  53.2776318
  41.5467321  55.2727355  54.9254520  41.2201711  55.5812142  55.9172494
  40.6648284  55.1492790  54.2960498  42.0743745  54.3201933  54.9831488
  46.1515004  57.5525462  54.9301211  46.8693806  56.6428390  55.3535916
  46.4864895  58.8377571  55.0315481  45.8090612  59.5163701  54.6989599
  47.7544470  59.3512676  55.5526150  48.5547543  58.8001985  55.0545876
  47.8730335  60.8340295  55.1469821  47.0506095  61.3908310  55.5948192
  48.8055786  61.2563733  55.5178575  47.8508535  61.0384753  53.6397004
  48.3734240  60.2446134  52.8782893  47.2598114  62.1020292  53.1563204
  47.2416306  62.2066332  52.1593517  46.8480251  62.7833456  53.7872867
  47.9468444  59.1377255  57.0701984  47.0047441  58.8535934  57.8115370
  49.1815308  59.3436414  57.5560702  49.8961373  59.6073001  56.8935640
  49.5590251  59.2814558  58.9889465  49.3602885  58.2798370  59.3741774
  51.0656393  59.5818074  59.1336796  51.2872064  60.5053412  58.5946930
  51.2996802  59.7592447  60.1848491  51.9802966  58.4611950  58.5905077
  51.4759209  57.9302367  57.7827126  52.8803372  58.9144578  58.1721879
  52.4062533  57.4447098  59.6619578  51.5205439  57.1147524  60.2083070
  52.8470138  56.5755532  59.1692031  53.4055715  58.0277953  60.5792068
  54.1041852  58.6523154  60.1897279  53.4537607  57.9133425  61.8916085
  52.7350058  57.0788450  62.5740040  52.2385489  56.3408931  62.0867962
  52.7377241  57.1181157  63.5827994  54.2725859  58.6637840  62.5525953
  54.8705923  59.2951795  62.0268813  54.3149626  58.6309888  63.5511977
  48.7265307  60.2309337  59.8666885  48.3013526  59.8590553  60.9558861
  48.4265095  61.4291200  59.3652799  48.8048958  61.6835413  58.4615433
  47.5413356  62.4047085  60.0181756  47.7451448  62.4032255  61.0887423
  47.8487870  63.8070515  59.4731341  47.2803355  64.5479299  60.0351156
  48.9101792  64.0251591  59.6027965  47.4832266  63.8944345  57.9953779
  48.2630135  63.3725834  57.1687627  46.3616502  64.3508394  57.6751903
  46.0386090  62.0992526  59.8219813  45.1950347  62.7521068  60.4356466
  45.6768977  61.1262725  58.9796190  46.4056762  60.5556322  58.5661966
  44.2938382  60.7600189  58.6607852  44.2857752  59.7242532  58.3205308
  43.6858512  60.8111081  59.5642361  43.6090072  61.6006613  57.5740744
  42.3843688  61.5279367  57.4504204  44.3256675  62.4398425  56.8174190
  45.3036756  62.5779719  57.0409864  43.8627377  62.9457114  55.5062528
  42.8316108  63.2823035  55.6057062  44.6833270  64.1688816  55.0701398
  44.3712781  64.4818170  54.0728545  44.4941944  64.9944714  55.7566440
  46.0668568  63.8898848  55.0577723  46.4019925  64.0701912  55.9669272
  43.8717473  61.8362243  54.4343259  44.3417969  60.7248415  54.6915407
  43.3435697  62.1214478  53.2377342  42.9916843  63.0519928  53.0692306
  43.1071576  61.1345716  52.1744953  43.6318568  60.2119489  52.4268268
  41.5892305  60.8351508  52.1103065  41.1400914  61.1466006  53.0540564
  41.1172148  61.4271789  51.3243167  41.2460387  59.3439816  51.9232801
  41.8871109  58.7509176  52.5721888  39.7930634  59.0826919  52.3258825
  39.1204779  59.6656095  51.6960369  39.5585707  58.0238785  52.2121304
  39.6414798  59.3612751  53.3685605  41.4234186  58.8567677  50.4870896
  42.4665121  58.9444697  50.1935308  41.1306972  57.8105736  50.4142546
  40.8073396  59.4506232  49.8114686  43.6645984  61.6389826  50.8319799
  43.3517498  62.7481013  50.3869090  44.5143206  60.8259976  50.2021977
  44.6935796  59.9206970  50.6256701  45.0001356  61.0377729  48.8292422
  45.2904975  62.0841538  48.7270311  46.2415300  60.1502428  48.5837730
  46.1827752  59.2719311  49.2262870  46.2707100  59.7882285  47.5557187
  47.5607731  60.8844371  48.8703398  47.4947050  61.3813753  49.8411711
  48.3540094  60.1357365  48.9355909  47.9457686  61.9105940  47.7888283
  47.0756547  62.3376059  46.9876229  49.1370772  62.2993646  47.7598403
  43.9025339  60.8034227  47.7705423  42.7513492  60.4935772  48.0915475
  44.2297596  60.9792590  46.4840771  45.1841129  61.2556746  46.2746182
  43.2928175  60.6996237  45.3791634  42.3871306  61.2696689  45.5806795
  43.8613279  61.2377000  44.0512504  43.0524516  61.2611126  43.3220619
  44.1766749  62.2703692  44.2103469  45.0518602  60.4521492  43.4621961
  45.7500691  61.1573496  43.0155585  45.5902361  59.9426631  44.2597662
  44.6252305  59.4407062  42.3811775  45.4465299  58.7487390  42.1958473
  43.7717664  58.8654922  42.7298039  44.3158515  60.1355883  41.1237451
  44.8033740  61.0105039  40.9707678  43.5139643  59.7960042  40.1373135
  42.7219481  58.7651392  40.1468285  42.5634654  58.2602999  41.0114121
  42.1596304  58.5996442  39.3215552  43.4770150  60.5450339  39.0809068
  44.0224668  61.3929662  39.0588910  42.8575425  60.2780759  38.3259595
  42.9130083  59.2016553  45.3037789  43.8144873  58.3634986  45.2476397
  41.6200683  58.8311704  45.2302418  40.4648660  59.5810098  45.6999797
  39.9850358  60.0881733  44.8616159  40.7258840  60.2944783  46.4778446
  39.5309095  58.5221443  46.2807826  38.4969956  58.8601112  46.3168667
  39.8750679  58.2304531  47.2749183  39.7234234  57.3650621  45.3030560
  39.1140160  57.5386602  44.4141602  39.4703289  56.4063304  45.7579048
  41.2151677  57.4516245  44.9527082  41.7694978  56.7973620  45.6255666
  41.4887648  57.0193388  43.5031820  41.5675716  57.8467594  42.5865860
  41.5909045  55.7082873  43.2857699  41.5143996  55.0923174  44.0923528
  41.7147015  55.0636498  41.9709132  41.2259581  55.7033179  41.2349700
  43.1973914  54.9335979  41.5525504  43.1992516  54.5535945  40.5301022
  43.6445362  55.9276149  41.5137123  44.0982185  54.0103204  42.4050377
  43.5548516  53.1052327  42.6756233  45.3271585  53.6003648  41.5894291
  45.9154414  54.4786227  41.3241526  45.9460280  52.9215628  42.1761703
  45.0191721  53.0801515  40.6816279  44.6125576  54.6949399  43.6753660
  43.8020280  54.8277463  44.3891888  45.3793194  54.0803272  44.1452957
  45.0436877  55.6654762  43.4330767  40.9535879  53.7250568  41.9520274
  40.5599287  53.2235055  43.0051055  40.6818787  53.1770189  40.7611289
  41.0770811  53.5964358  39.9283770  39.8319224  51.9878980  40.5909626
  39.7209993  51.4995300  41.5573121  38.4250053  52.3740033  40.0938015
  38.4951083  52.8220724  39.1026083  37.8722549  51.4404380  39.9828598
  37.6298450  53.3070661  41.0312097  38.0089071  53.2258021  42.0458899
  37.7133542  54.7731889  40.5943771  37.3686814  54.8810736  39.5678511
  37.1065957  55.3893683  41.2580371  38.7443913  55.1159791  40.6535667
  36.1551879  52.9030852  41.0550313  36.0690126  51.8871826  41.4426540
  35.5988159  53.5710481  41.7123334  35.7368451  52.9357377  40.0501037
  40.4635064  50.9666699  39.6381454  40.8381664  51.3258507  38.5185833
  40.5466138  49.7042018  40.0710363  40.1420051  49.4895637  40.9791670
  41.2605430  48.6183030  39.3832713  41.1302768  48.7679801  38.3104680
  42.7771445  48.7148328  39.6860999  43.2989838  48.1693197  38.8982352
  43.0919101  49.7565592  39.6022136  43.2708868  48.1476983  41.0379859
  43.0346320  47.0853557  41.0881356  44.7907274  48.2895999  41.1261276
  45.0759201  49.3419380  41.0997387  45.1579152  47.8417783  42.0489962
  45.2649493  47.7806811  40.2852069  42.6657564  48.8382580  42.2636585
  41.5982043  48.6305997  42.3230184  43.1336824  48.4579109  43.1712641
  42.8250778  49.9150896  42.2027741  40.6927363  47.2253744  39.7180013
  39.9370841  47.0579011  40.6767180  41.0674719  46.2140504  38.9303604
  41.6718903  46.4128866  38.1428834  40.8055834  44.7993559  39.2230286
  39.9935429  44.7056501  39.9435039  40.3591784  44.0709148  37.9434625
  41.1720382  44.1107156  37.2233031  40.2052207  43.0211857  38.1970401
  39.1156466  44.5810288  37.2355616  39.1867317  45.7053458  36.3875499
  40.1113653  46.2558784  36.2915159  38.0595996  46.1078402  35.6485640
  38.1156828  46.9669009  34.9925705  36.8569697  45.3873046  35.7537508
  35.9900777  45.6965746  35.1863729  36.7802116  44.2676066  36.6004770
  35.8579859  43.7092195  36.6811196  37.9081957  43.8646112  37.3358916
  37.8475803  42.9892357  37.9670595  42.0911734  44.1622767  39.8049651
  42.9413828  43.7246326  39.0239902  42.2940537  44.1529079  41.1397084
  41.3649904  44.5938737  42.1736854  40.3630379  44.1923759  42.0246403
  41.3378218  45.6826241  42.1960151  41.9416607  44.0873246  43.4936362
  41.6392305  43.0517060  43.6587097  41.6447273  44.7164483  44.3335104
  43.4454823  44.1549261  43.2324082  44.0018728  43.4918086  43.8972851
  43.7900261  45.1838805  43.3495739  43.5596383  43.7413489  41.7596666
  44.3847979  44.2877416  41.3003942  43.8444115  42.2374488  41.6281730
  42.9244400  41.4224380  41.5036399  45.1284955  41.8700231  41.6801133
  45.8349206  42.5885977  41.7850369  45.5657835  40.4841037  41.8702139
  44.9870296  39.8444039  41.2074251  47.0541091  40.3410103  41.4961024
  47.6389542  40.9401849  42.1903844  47.3453720  39.2987451  41.6325666
  47.4286925  40.7686167  40.0651946  47.2163036  41.8292401  39.9309237
  48.9229620  40.5463047  39.8346366  49.1700427  39.4905821  39.9392057
  49.1822014  40.8841916  38.8326643  49.4923596  41.1272700  40.5625559
  46.6601014  39.9746766  39.0063987  45.6049386  40.2323949  39.0596836
  47.0293813  40.2322604  38.0136244  46.7879468  38.9053840  39.1757806
  45.3110665  39.9920092  43.3075135  45.2658229  40.7832865  44.2538446
  45.2347072  38.6697411  43.4711058  45.2870177  38.0904647  42.6382715
  45.1417678  37.9618751  44.7591353  45.4984423  38.6294710  45.5393507
  43.6900357  37.5717424  45.1189658  43.7245912  36.9758587  46.0318562
  42.8347737  38.8067168  45.4159809  42.7374806  39.4321593  44.5287851
  41.8420099  38.4950465  45.7391357  43.2952269  39.3845458  46.2150921
  42.9642666  36.7455798  44.0481401  43.5148240  35.8275165  43.8551905
  41.9688016  36.4805634  44.4054141  42.8691963  37.3209608  43.1286392
  46.0617652  36.7336081  44.7537056  46.0839669  35.9722282  43.7825299
  46.8580081  36.5688104  45.8154367  46.7773615  37.2310359  46.5818341
  47.9028108  35.5402324  45.9341676  47.5215982  34.6015446  45.5272778
  49.1216065  35.9740761  45.1012459  49.5768127  36.8628950  45.5399415
  49.8611341  35.1743715  45.0753884  48.8224611  36.1884057  44.0764365
  48.3101311  35.2935401  47.4037985  47.8327583  35.9717563  48.3154305
  49.2391294  34.3585027  47.6489718  49.6056794  33.8326067  46.8682475
  49.8229884  34.1325921  48.9855316  49.1078035  34.4874881  49.7287341
  49.9934780  32.6228838  49.2487308  49.1252199  32.0881418  48.8599670
  50.8854694  32.2549368  48.7401095  50.0891344  32.3286302  50.7531100
  50.9042402  32.9094444  51.1828789  49.1605197  32.6510234  51.2259632
  50.3644144  30.5903097  51.1861456  50.3988550  30.7669492  52.9909415
  49.4060868  31.0369399  53.3547789  50.7160691  29.8286999  53.4459585
  51.1063266  31.5488557  53.2662022  51.1053105  34.9696719  49.2093772
  52.1227840  34.5014723  49.7270422  51.0438337  36.2552410  48.8541312
  50.1956299  36.5865659  48.4177427  51.9536370  37.2769721  49.3975328
  52.9716460  36.9025148  49.3250117  51.8744656  38.5799738  48.5772391
  50.8777248  39.0140371  48.6704974  52.9181655  39.6111699  48.9996255
  53.9223438  39.2340966  48.8047484  52.7646931  40.5294730  48.4314385
  52.8150510  39.8504074  50.0545276  52.1318005  38.2857996  47.2234462
  52.6626953  39.0153256  46.8434651  51.5770268  37.5080438  50.8742979
  50.3838596  37.5961717  51.1697975  52.5264705  37.6181178  51.8269699
  53.9645714  37.4843635  51.6331890  54.3632610  38.2835534  51.0087154
  54.1781620  36.5163681  51.1824917  54.5888068  37.5457031  53.0270417
  54.8215897  38.5809837  53.2796271  55.4818318  36.9235925  53.0972844
  53.4665378  37.0327210  53.9287364  53.5849738  37.3737413  54.9583933
  53.4452981  35.9429854  53.8948232  52.1999759  37.5844846  53.2624550
  51.3763802  36.8941177  53.4499147  51.8062907  38.9555701  53.8460981
  51.4880998  39.0569658  55.0309401  51.8276706  40.0064987  53.0212767
  52.0371962  39.8256659  52.0503159  51.4719661  41.3989832  53.3357477
  50.7409838  41.4122632  54.1459855  52.7130989  42.2274097  53.7497608
  53.3554861  42.3569023  52.8777357  52.3238701  43.6189676  54.2703370
  51.6388619  43.5266577  55.1145812  53.2126870  44.1691203  54.5780294
  51.8399959  44.1947776  53.4835150  53.5575689  41.5635742  54.8477844
  53.9629435  40.6193905  54.4885038  54.4016145  42.2013944  55.1061181
  52.9399607  41.3693161  55.7258812  50.8426648  42.0059529  52.0771112
  51.2618341  41.6766785  50.9702122  49.8331282  42.8634379  52.2128499
  49.5045539  43.0790006  53.1463959  49.2629897  43.6305818  51.0967804
  48.9547158  42.9249889  50.3224851  48.0252121  44.4255542  51.5783799
  48.3567656  45.3955759  51.9415319  47.3606132  44.6001177  50.7338203
  47.2521440  43.8022205  52.7315040  47.7175474  43.7702648  53.8602331
  46.0598151  43.3173179  52.5066425  45.5851664  42.9161277  53.3262666
  45.6407542  43.3138600  51.6030493  50.3187118  44.5842684  50.4892786
  51.0049866  45.2759677  51.2484992  50.4044670  44.7042935  49.1564655
  49.8112415  44.1322278  48.5621761  51.4128010  45.5555724  48.4869627
  51.8117893  46.2499958  49.2247963  52.6294395  44.7469095  47.9587651
  53.4043745  45.4725226  47.7062059  53.2349583  43.8366382  49.0390595
  52.5754908  42.9915290  49.2291730  54.1958167  43.4573011  48.6887335
  53.3874926  44.3897701  49.9623126  52.3391596  43.9032645  46.6968735
  52.8989652  42.9679386  46.7432663  51.2815337  43.6473461  46.6658113
  52.7446282  44.5953340  45.3880885  53.8069382  44.8268872  45.4163101
  52.5525237  43.9306103  44.5462133  52.1865224  45.5163597  45.2421175
  50.7944148  46.4111810  47.3741183  49.9743838  45.9442103  46.5830464
  51.1968510  47.6825938  47.3293537  51.8782618  47.9739878  48.0249551
  50.8547943  48.6654708  46.2999474  49.9708451  48.3358934  45.7526124
  50.5493813  50.0276178  46.9576732  51.4655551  50.3963106  47.4202654
  50.2707224  50.7295929  46.1713441  49.4524749  50.0213618  48.0387637
  49.7644417  49.3924630  48.8720555  49.2558003  51.4446618  48.5654304
  48.9497323  52.1088510  47.7569942  48.4971029  51.4498204  49.3447853
  50.1905713  51.8033376  48.9951565  48.1048833  49.5147686  47.5193027
  48.1954266  48.4700102  47.2203688  47.3593328  49.5786294  48.3111010
  47.7804886  50.1071186  46.6658826  52.0183865  48.7704513  45.3032510
  53.0440456  49.3765573  45.6182992  51.8694702  48.1357046  44.1376545
  50.9662207  47.7309486  43.9258390  52.9001680  48.0768599  43.0965889
  53.8691063  47.9133036  43.5677807  52.6938996  47.2330489  42.4376758
  52.9983296  49.3457099  42.2441796  52.2246956  50.2989909  42.4025069
  53.9173173  49.3493916  41.2689474  54.5076656  48.5249312  41.1659065
  54.1570630  50.5102431  40.3923100  54.4021753  51.3589776  41.0280438
  55.3384741  50.2776165  39.4424070  55.1531894  49.3842273  38.8431117
  55.4005532  51.1365644  38.7716431  56.6833490  50.1407225  40.1736963
  56.7270286  50.8570117  40.9951959  56.7716332  49.1420575  40.5970637
  57.8787961  50.4128541  39.2473943  57.9505222  51.4909699  39.0899526
  58.7885611  50.0914212  39.7464156  57.7785175  49.7637486  37.9272971
  57.6043521  50.3882910  37.1445073  57.8513158  48.4750219  37.6511549
  58.0826684  47.5461411  38.5306780  58.1916858  47.7618530  39.5085799
  57.9841649  46.5733589  38.2429659  57.6817043  48.0603889  36.4364670
  57.3137726  48.6672146  35.7198502  57.6243914  47.0456274  36.3201924
  52.9278464  50.9410973  39.5968571  52.7928672  52.1339644  39.3352939
  52.0249433  50.0271809  39.2350945  52.2074687  49.0500045  39.4330562
  50.7506987  50.3930407  38.6043184  50.9932468  50.9760921  37.7161945
  49.9887653  49.1454149  38.1137189  49.4393887  49.4308804  37.2140878
  50.6962113  48.3691714  37.8196777  48.9895504  48.5759886  39.1264078
  49.4169003  48.0914921  40.2016298  47.7739716  48.7046712  38.8335703
  49.8906988  51.3235334  39.4856775  49.2881411  52.2706060  38.9748882
  49.8325693  51.0930817  40.8008926  50.3323271  50.2910644  41.1697969
  49.1640243  51.9869980  41.7490611  48.1633660  52.2111145  41.3777434
  49.0204706  51.2422824  43.0854381  48.4370756  50.3335360  42.9240728
  50.0055540  50.9570054  43.4594066  48.1834829  52.2821680  44.3177266
  48.1138468  51.3537806  45.2775998  49.9032160  53.3311216  41.8898940
  49.2963734  54.3981955  41.7699704  51.2321123  53.2973899  42.0564336
  51.6751590  52.3870151  42.1372864  52.0536108  54.5062164  42.2234805
  51.6149746  55.1043191  43.0229497  53.4853880  54.1270122  42.6532463
  53.8155301  53.2473139  42.1014880  54.1391341  54.9531337  42.3772575
  53.6698037  53.8956465  44.1687412  53.3519989  54.7945002  44.6969462
  52.8885445  52.7091120  44.7308241  53.1820865  51.7936418  44.2182748
  53.1075992  52.5863509  45.7902587  51.8173341  52.8658372  44.6205419
  55.1499430  53.6616640  44.4778589  55.7422299  54.5158527  44.1542546
  55.2876603  53.5276084  45.5508405  55.5004145  52.7634438  43.9663156
  52.0422274  55.4135748  40.9758064  52.0170643  56.6380207  41.1214751
  52.0083154  54.8407100  39.7661838  52.0918351  53.8298006  39.7105334
  51.7672330  55.5803108  38.5212754  52.4894834  56.3968917  38.4713330
  52.0036079  54.6737486  37.2977745  53.0387478  54.3307687  37.3180613
  51.3467041  53.8035410  37.3511760  51.7374173  55.4262658  35.9775645
  50.6772502  55.6651656  35.9095371  52.2938028  56.3639774  35.9829662
  52.1261773  54.6598216  34.7157176  52.8421651  53.6721974  34.7234852
  51.6877249  55.0920634  33.5573394  51.9417174  54.5558728  32.7474455
  51.0260144  55.8520257  33.5034067  50.3716544  56.2239087  38.4951474
  50.2570363  57.4059179  38.1794191  49.3157099  55.4822828  38.8556135
  49.4623043  54.5093942  39.1019422  47.9514793  56.0208921  38.9451439
  47.6182779  56.3151830  37.9499442  47.2819012  55.2453546  39.3160592
  47.8455292  57.2396174  39.8726087  47.2267886  58.2451803  39.5163770
  48.5081281  57.1814453  41.0320002  48.9556070  56.2990665  41.2656359
  48.6388732  58.2933817  41.9832994  47.6463998  58.6880154  42.1935264
  49.2334211  57.7542233  43.2983083  50.1875292  57.2838277  43.0595389
  49.4315979  58.5995924  43.9580990  48.3650948  56.7375199  44.0703969
  47.9982927  55.9662873  43.3963387  49.1974506  56.0666204  45.1645292
  49.5718963  56.8122150  45.8656187  48.5813724  55.3420164  45.6974327
  50.0326498  55.5333911  44.7127044  47.1659304  57.4059912  44.7419956
  46.4901034  57.7901748  43.9845188  46.6174344  56.6744073  45.3359109
  47.4928881  58.2195398  45.3895416  49.4704061  59.4868438  41.4532613
  49.2312757  60.6205985  41.8774531  50.4200176  59.2559116  40.5359713
  50.5133947  58.3114128  40.1821670  51.3286470  60.2723252  39.9733999
  51.5630942  59.9943978  38.9454339  50.8248936  61.2390753  39.9464222
  52.6616505  60.4487804  40.7226798  53.3187100  61.4874133  40.5893346
  53.0525423  59.4682807  41.5479080  52.5098333  58.6111620  41.5468530
  54.2344536  59.5396502  42.4179601  54.1943406  60.5003103  42.9288968
  54.1929524  58.4240332  43.4902849  53.6170856  57.5684481  43.1350817
  55.2103073  58.0703552  43.6617829  53.6408247  58.9096638  44.8450372
  54.0719620  59.8791512  45.0854640  52.1212986  59.0331676  44.8457102
  51.6775658  58.0496136  44.7059048  51.7867371  59.4469093  45.7976730
  51.7975787  59.7013047  44.0483795  54.0409562  57.9414305  45.9570598
  55.1267139  57.8722263  46.0053310  53.6701966  58.3138992  46.9106279
  53.6214735  56.9538430  45.7663229  55.5837154  59.5471438  41.6763298
  55.7205596  59.0905144  40.5335949  56.5979404  60.0184871  42.4130651
  56.3522668  60.4166817  43.3179690  58.0262526  60.0565683  42.0689351
  58.2365931  59.2482563  41.3679147  58.3670253  61.3899259  41.3654741
  59.4445504  61.4430403  41.1995271  57.8801724  61.3872651  40.3888279
  57.9057731  62.6517370  42.1206938  56.8302336  62.5876978  42.2862111
  58.4034023  62.7040761  43.0884140  58.1934428  63.9394744  41.3312811
  59.1486329  64.3590894  41.6489545  58.2757482  63.6988322  40.2693151
  57.0988172  64.9179690  41.4847114  56.2914408  64.7727986  40.8849974
  57.0054551  65.9121937  42.3478509  57.9260991  66.2247756  43.2113184
  58.8628529  65.8310094  43.1724131  57.6937118  66.9470033  43.8992155
  55.9592815  66.6812639  42.3843937  55.2083002  66.6429218  41.6989918
  55.9083653  67.3320777  43.1706262  58.8971582  59.8010793  43.3095825
  58.5127222  60.1155235  44.4372939  60.0641999  59.2031864  43.0836783
  60.2881015  58.9958923  42.1159494  61.0812968  58.8441753  44.0770286
  60.6810708  58.9669777  45.0842737  61.4445682  57.3624133  43.8470324
  60.5560796  56.7517742  44.0177168  61.7297985  57.2480691  42.7998422
  62.5984465  56.8118452  44.7047579  63.4749705  57.4515900  44.6072677
  62.2079278  56.7096119  46.1761413  61.3801525  56.0103273  46.2751876
  63.0401737  56.3278790  46.7608495  61.9273103  57.6866761  46.5639358
  62.9630109  55.4092562  44.2217658  63.2959273  55.4559013  43.1854441
  63.7675981  55.0026862  44.8333325  62.0989610  54.7471643  44.2906921
  62.2917999  59.7712303  43.8962039  62.8564832  59.8183207  42.8063430
  62.6724489  60.5383888  44.9189383  62.1770713  60.4512415  45.8026925
  63.6373954  61.6506219  44.7844380  64.2931307  61.4398159  43.9466461
  62.8673111  62.9469230  44.4597725  62.2384961  62.7720627  43.5857946
  61.9908144  63.4340540  45.6113297  62.6109211  63.7061338  46.4626652
  61.4243532  64.3082326  45.2919873  61.2960548  62.6502421  45.9078587
  63.7383335  64.0114396  44.1754152  63.1799956  64.7422224  43.8740125
  64.5261205  61.8261028  46.0202598  64.1521282  61.3925449  47.1051311
  65.6837219  62.4829157  45.9010261  65.9796918  62.7348154  44.9617472
  66.3736774  63.1223690  47.0380608  65.7033892  63.1096923  47.8984913
  67.6340977  62.3384502  47.4573204  68.0091775  62.7683221  48.3864496
  67.3801847  61.3112019  47.6897465  68.7872840  62.3535030  46.4673980
  68.7549914  62.9442072  45.3933197  69.8666102  61.7093960  46.8261399
  70.7194177  61.8167905  46.2804614  69.8953147  61.2684270  47.7408111
  66.6838831  64.6141967  46.7996620  67.4640686  65.1975309  47.5572384
  66.0495411  65.2277465  45.7893616  65.3976944  64.6808708  45.2383290
  66.1446358  66.6586046  45.4683428  67.1700560  66.9911643  45.6354000
  65.8029705  66.8708029  43.9735567  64.7327691  66.7079025  43.8401744
  66.0061806  67.9144346  43.7283916  66.5387390  65.9979967  42.9464036
  66.3224542  64.9470166  43.1314007  66.0287775  66.3550657  41.5527814
  66.2998235  67.3821632  41.3059078  66.4586433  65.6745331  40.8216296
  64.9437029  66.2600030  41.5205860  68.0516342  66.2069215  42.9888456
  68.4461653  65.8531006  43.9413101  68.5267248  65.6637486  42.1745665
  68.2799077  67.2680695  42.8838494  65.2732119  67.4847113  46.4217488
  65.5386906  67.4625082  47.6372697  64.2483602  68.0762694  46.0301306
  69.1024300  62.7339293  42.5871098  68.7379106  63.0546101  43.4764528
  68.9795842  63.4428493  41.8744441  70.0968006  62.5717669  42.7022022
  68.4243603  61.4885373  42.1738291  68.7915629  61.2086856  41.1870056
  68.7244969  60.3521889  43.1792644  69.7632057  60.4350501  43.4857327
  68.1270675  60.5004827  44.0799125  68.5289037  58.9018742  42.6959454
  68.7874086  58.2501080  43.5307147  67.0956683  58.5647446  42.2825849
  66.8656313  58.9990818  41.3132642  66.9935744  57.4817520  42.1997045
  66.3881911  58.9232815  43.0305702  69.4694315  58.5661543  41.5380780
  70.5036098  58.7455475  41.8347560  69.3608699  57.5141000  41.2724306
  69.2414556  59.1712644  40.6615562  66.9327870  61.7774297  42.0885959
  66.3771962  62.2056465  43.0962624  66.2787977  61.5467234  40.9442425
  66.7900333  61.2505345  40.1227179  64.8214701  61.6704197  40.8158749
  64.3779636  61.3419479  41.7519952  64.4453743  63.1442148  40.6380929
  64.8248630  63.5202711  39.6867422  63.3612403  63.2402188  40.6690587
  64.8574627  63.7343914  41.4552930  64.2445430  60.7795968  39.6940645
  64.7589537  60.7460007  38.5741504  63.2121799  59.9928309  40.0118611
  62.8805992  60.0239183  40.9716120  62.6036119  58.9822131  39.1338982
  62.8505505  59.2046508  38.0958772  63.1688411  57.5843468  39.4655429
  62.9042275  57.3211018  40.4908264  62.7182292  56.8526328  38.7939864
  64.6967905  57.5187957  39.3236130  64.9679423  57.7467862  38.2940339
  65.1301229  58.2877785  39.9588663  65.4919716  55.9650712  39.8094651
  65.0020724  54.8631415  38.4564236  65.3729306  55.2494388  37.5092034
  65.4373264  53.8780959  38.6234214  63.9163872  54.7832042  38.4141679
  61.0722506  58.9882239  39.2582509  60.5346708  58.6615390  40.3176302
  60.3553794  59.3535559  38.1932331  60.8276288  59.7132679  37.3779107
  58.8980480  59.1495035  38.0896589  58.4106491  59.6702918  38.9113522
  58.3754167  59.7558382  36.7767389  58.9153042  59.3270850  35.9312236
  56.8785896  59.5752701  36.5525953  56.3260902  60.0063542  37.3873684
  56.5867025  60.0755040  35.6299222  56.6344187  58.5184322  36.4519951
  58.5977367  61.1438750  36.8210311  57.8057973  61.5819315  36.4847006
  58.5415033  57.6610053  38.1854450  59.1952138  56.8208218  37.5661583
  57.4966781  57.3243611  38.9482507  56.9833436  58.0549710  39.4284330
  56.9733704  55.9555993  39.0360067  57.8084965  55.2588626  39.0930610
  56.1291893  55.7770574  40.3069136  55.2636068  56.4389676  40.2540495
  55.7618767  54.7503262  40.3481063  56.8936392  56.0771449  41.6057913
  57.3440633  57.0673570  41.5554098  56.1596661  56.1042948  42.4098596
  58.1624562  54.8696561  42.0873147  59.6465509  55.5167837  41.2660790
  59.7772720  56.5649184  41.5275769  60.5175603  54.9530039  41.6006175
  59.5652132  55.4218538  40.1850159  56.1718836  55.5900833  37.7829891
  55.1879823  56.2624275  37.4610210  56.5754498  54.5163374  37.1023655
  57.4274495  54.0452050  37.4014967  55.9389034  53.9884384  35.8932415
  54.9324529  54.3950821  35.8096332  56.7281664  54.4042315  34.6289748
  57.7388334  53.9974367  34.6888644  56.2338966  53.9484462  33.7698342
  56.8210947  55.9278567  34.3900189  55.8082833  56.3374393  34.3601788
  57.3456206  56.3868634  35.2298970  57.5507969  56.3157754  33.0854370
  57.7605025  55.4402428  32.2142269  57.8829202  57.5209002  32.9186644
  55.8395254  52.4506895  35.9701657  56.8467452  51.7535435  36.1035999
  54.6369264  51.8843018  35.8275246  53.8320793  52.4924075  35.7062340
  54.4520178  50.4486599  35.5757288  54.8112577  49.8844108  36.4373938
  52.9566810  50.1263400  35.3789584  52.4859375  50.0505553  36.3561189
  52.4783187  50.9415194  34.8340281  52.6990942  48.8447468  34.6148533
  52.1438086  48.7375346  33.3567584  51.7204573  49.4675459  32.7874224
  52.1688156  47.4483785  32.9933488  51.7727669  47.0667709  32.0594706
  52.7746858  46.7071921  33.9358811  53.0662952  47.5792370  34.9959298
  53.5495967  47.3123678  35.9258488  55.2740356  49.9982194  34.3596852
  55.9399425  48.9613756  34.4130954  55.2557656  50.7852410  33.2753944
  54.7053645  51.6321383  33.3321772  55.8789065  50.4431795  31.9885915
  55.4118475  49.5347723  31.6170263  55.6548176  51.5922324  30.9861424
  55.9675209  52.5238711  31.4618215  56.2908306  51.4562689  30.1124891
  54.1965175  51.7543061  30.5194232  53.5150519  51.5268077  31.3403376
  54.0522482  52.8031267  30.2637491  53.7923880  50.9307095  29.2828335
  52.7452006  51.1552065  29.0774452  54.3706713  51.2555392  28.4156216
  53.8995041  49.4123386  29.4616485  53.8284896  49.1695867  30.5245310
  53.0347219  48.9475686  28.9800400  55.1344026  48.8500237  28.8653428
  55.9606619  49.4263815  29.0147511  55.3135462  47.9144682  29.2169910
  55.0200174  48.7395670  27.8597371  57.3664757  50.1040549  32.1013818
  57.7730518  49.0698414  31.5762508  58.1505904  50.9152577  32.8096392
  57.7318775  51.7050618  33.2762207  59.6113179  50.7843018  32.8580984
  59.9020274  49.8785089  32.3231437  60.2778601  51.9539629  32.1170273
  60.0194649  52.8851529  32.6251137  61.3600956  51.8295500  32.1775533
  59.8912713  52.0720193  30.6352969  59.4189848  51.0926830  30.0161962
  60.0676214  53.1813356  30.0817173  60.1351729  50.6540316  34.2971238
  59.8192947  51.4528785  35.1833939  60.9511833  49.6157046  34.5154758
  61.1673326  49.0371809  33.7175915  61.5709108  49.2515660  35.8002052
  60.7650443  49.0085913  36.4872263  62.4175262  47.9774906  35.5924317
  63.0996603  48.1379036  34.7555895  63.0110630  47.7976054  36.4903361
  61.5696137  46.7167939  35.3263329  61.0145957  46.4806042  36.2357063
  60.8467499  46.9038928  34.5311026  62.4251628  45.4936987  34.9446996
  63.2893317  45.4417909  35.6103159  61.8239866  44.5953464  35.0995755
  62.8524833  45.5262498  33.5285652  62.1993047  45.8887388  32.8492274
  63.9911739  45.0952294  33.0134754  64.9274012  44.5028017  33.6955641
  64.7190116  44.1062510  34.6029511  65.7611680  44.2217006  33.1958161
  64.2111985  45.2206099  31.7444678  63.4610108  45.5397184  31.1394143
  65.0478627  44.8072503  31.3467348  62.4140095  50.4057721  36.4089117
  63.1070091  51.0977911  35.6472486  62.4485643  50.5807629  37.7521824
  61.4742406  50.0940528  38.7194141  61.8790623  49.2344034  39.2531426
  60.5201868  49.8399031  38.2666084  61.2598012  51.2547988  39.6859988
  60.9064632  50.9129715  40.6581378  60.5614886  51.9710551  39.2541429
  62.6429240  51.8839141  39.7838391  63.1703559  51.4162307  40.6150131
  62.5734878  52.9592135  39.9527080  63.3019506  51.5721672  38.4241729
  63.3074410  52.4885439  37.8333471  64.7478293  51.0595768  38.5559030
  65.1854028  50.5785325  39.6017804  65.4804964  51.1338129  37.4456992
  65.0534803  51.5468486  36.6282212  66.8469016  50.6311986  37.3005563
  67.0774191  49.9617668  38.1291539  66.9607848  49.8469921  35.9812227
  66.7502339  50.5285022  35.1548600  67.9878917  49.5122131  35.8706908
  66.0274151  48.6311286  35.8599166  64.9988973  48.9794562  35.8949467
  66.2471382  47.9404196  34.5149752  67.2607228  47.5450520  34.4514142
  65.5380300  47.1253348  34.3991995  66.0949899  48.6507025  33.7012667
  66.2259328  47.5953116  36.9700701  65.9574854  48.0264544  37.9341540
  65.5861931  46.7321705  36.7923038  67.2653416  47.2712772  36.9990069
  67.8740633  51.7679717  37.3287829  67.6422467  52.8316544  36.7543947
  69.0283104  51.5141319  37.9488141  69.1124731  50.6373451  38.4558646
  70.1601059  52.4522500  38.0234253  70.0342793  53.2037588  37.2449623
  70.2020487  53.1964096  39.3775114  71.0906040  53.8271630  39.3722248
  68.9897197  54.1170897  39.5618449  68.0785617  53.5296136  39.6789411
  69.1276468  54.7410641  40.4445642  68.8797662  54.7595651  38.6901287
  70.2844740  52.2822600  40.6080856  71.1391732  51.6150755  40.5308447
  70.3981003  52.8877960  41.5068007  69.3766740  51.6842950  40.6968068
  71.4914808  51.7422043  37.7532167  71.6971115  50.6036661  38.1793834
  72.4028023  52.4076366  37.0278141  72.1474324  53.3414083  36.7233303
  73.8044984  51.9700396  36.8513420  73.8064132  50.8901219  36.6870347
  74.4326217  52.6542048  35.6161923  73.7850699  52.4725299  34.7562340
  74.4742622  53.7308303  35.7893085  75.8497644  52.1437290  35.2713564
  76.5202423  52.3443332  36.1068943  75.8118850  51.0658903  35.1050217
  76.4092899  52.8300076  34.0095358  75.7632342  52.5883660  33.1625328
  76.3651191  53.9099374  34.1574018  77.7953723  52.4006829  33.6893253
  77.9444376  51.4179372  33.5375485  78.8635337  53.1730649  33.5353362
  78.8090426  54.4688258  33.6561446  77.9198434  54.9412560  33.6471809
  79.6644562  55.0156164  33.6584626  80.0323199  52.6636406  33.2533623
  80.1609866  51.6699147  33.0887251  80.8327308  53.2704834  33.1625351
  74.5905370  52.2471597  38.1369187  74.5053101  53.3491074  38.6784177
  75.3640338  51.2719715  38.6128424  75.3480329  50.3782810  38.1285055
  76.0926230  51.3195800  39.8943965  76.1609971  52.3517809  40.2356135
  75.3594141  50.5026180  40.9831506  75.3583523  49.4509895  40.6987802
  76.0440787  50.6262516  42.3505641  76.1065165  51.6725125  42.6500631
  75.4777120  50.0721361  43.1001360  77.0450633  50.1987151  42.3112579
  73.9015271  50.9382529  41.1607081  73.3405514  50.7306466  40.2513532
  73.4434651  50.3668413  41.9667124  73.8495391  52.0020948  41.3881952
  77.5094393  50.7737831  39.7186281  77.6848066  49.6763791  39.1890753
  78.5174297  51.5386548  40.1491927  78.2845224  52.4228444  40.5886360
  79.8900325  51.0457821  40.3402021  80.0509146  50.2560899  39.6091895
  80.9271546  52.1605440  40.0404565  80.4961694  52.7576750  39.2390656
  81.1809297  53.1299619  41.2069672  81.6194913  52.6113178  42.0599660
  81.8660351  53.9119461  40.8849015  80.2462527  53.5849521  41.5237575
  82.2565644  51.6335659  39.4499514  82.0338437  50.8835658  38.6909193
  82.7458075  52.4646295  38.9417637  83.2790021  51.0424670  40.4247386
  82.8388040  50.2182856  40.9716109  84.1351804  50.6698779  39.8633434
  83.6262805  51.8036195  41.1227753  80.0095738  50.4187049  41.7391068
  79.5691530  51.0183037  42.7253928  80.5769420  49.2129380  41.8198995
  80.8975149  48.7854393  40.9547253  80.9521609  48.5436058  43.0721020
  80.6719547  49.1682325  43.9210416  80.2433148  47.1827351  43.2053340
  80.5687152  46.5453078  42.3850854  80.5780079  46.7169314  44.1336293
  78.7055446  47.2143338  43.2060949  78.3421200  47.6257293  42.2640628
  78.1784593  45.7857740  43.3527045  78.5461601  45.3378090  44.2762381
  77.0903136  45.7956524  43.3721351  78.5079882  45.1832525  42.5050766
  78.1405504  48.0394310  44.3618188  78.4498658  49.0773028  44.2558820
  77.0516447  48.0004110  44.3410386  78.5004154  47.6517636  45.3140525
  82.4708571  48.3391254  43.1271798  83.0890752  47.9559371  42.1313698
  83.0783272  48.6116596  44.2824235  82.5214110  49.0245412  45.0287317
  84.5207938  48.4563428  44.5195856  84.9201915  47.7940724  43.7658961
  85.2350814  49.8090380  44.3622444  84.6988086  50.5721396  44.9263243
  86.7014541  49.8073626  44.7949743  87.2346259  49.0023791  44.2919043
  87.1565361  50.7620038  44.5304665  86.7760024  49.6799843  45.8744373
  85.2262247  50.1503310  42.9943703  84.3711667  49.8747572  42.6485957
  84.8143847  47.8072205  45.8696515  84.4997100  48.3679469  46.9151378
  85.4469989  46.6306413  45.8715977  85.6537610  46.1868972  44.9869346
  85.9223129  45.9982250  47.1069824  85.1475265  46.0732496  47.8709659
  86.1718632  44.5031943  46.8247421  85.2192937  44.0201349  46.6188116
  86.8033271  44.4067874  45.9413029  86.8457068  43.7501102  47.9623270
  86.9874270  44.2316874  49.0750342  87.3195029  42.5570297  47.6954568
  87.8922425  42.1122152  48.4090922  87.1708829  42.1379578  46.7951018
  87.1711960  46.7288909  47.6389280  88.2280627  46.7143304  47.0009723
  87.0661235  47.3162840  48.8347138  86.1753256  47.2509089  49.3187740
  88.1420120  48.1017079  49.4777187  88.8131572  48.4735157  48.7044419
  87.5745358  49.3357396  50.2034952  88.4137866  49.9380762  50.5531100
  86.7106252  50.2212038  49.3083146  85.8076498  49.6931253  49.0022483
  86.4249928  51.1200170  49.8549701  87.2736599  50.5152678  48.4228472
  86.8007953  48.9788372  51.3250643  86.0449908  48.4452531  51.0226909
  89.0099467  47.2892786  50.4503674  89.9557444  47.8386257  51.0266391
  88.7192334  45.9898173  50.6016602  87.9531453  45.6105984  50.0534543
  89.3759389  45.0558217  51.5163454  89.1401720  45.3472141  52.5387927
  88.9714699  44.0592493  51.3407016  90.8950289  44.9739889  51.3573951
  91.4312018  45.0920675  50.2493446  91.5817803  44.7266380  52.4776841
  91.0570259  44.6259750  53.3335701  93.0470693  44.8155738  52.5984019
  93.3947071  45.6196017  51.9498501  93.4326674  45.1941921  54.0425850
  93.2475919  44.3459112  54.7046695  94.4957640  45.4387271  54.0730161
  92.6732761  46.3097650  54.5026811  93.2313133  46.8646356  55.0928824
  93.7343532  43.5154722  52.1335404  94.4536992  42.8468043  52.8842798
  93.4910829  43.1633103  50.8694944  92.8944352  43.7873163  50.3367099
  93.8363059  41.8981892  50.2137745  94.8552362  41.6312727  50.4943791
  92.8650578  40.8005338  50.7017227  93.1019178  39.8628504  50.1991534
  93.0283180  40.6459056  51.7695528  91.3891471  41.0776181  50.4851451
  90.4144422  41.0469171  51.4555654  90.5503788  40.8709742  52.4512384
  89.2200895  41.1946255  50.8595375  88.2676164  41.1687449  51.3663952
  89.3636892  41.3373393  49.5348502  90.7388346  41.2435112  49.2880803
  91.2028058  41.2519158  48.3135961  93.7684322  42.0402392  48.6747617
  93.0882819  42.9486333  48.1891115  94.4250064  41.1627759  47.8895215
  95.4343278  40.2070045  48.3305914  95.0400268  39.5220281  49.0809383
  96.2935861  40.7489975  48.7292689  95.8531639  39.4244297  47.0848351
  95.2459416  38.5217277  46.9983397  96.9131795  39.1703363  47.1071206
  95.5216472  40.3820373  45.9386700  95.3641678  39.8518667  44.9980096
  96.3225311  41.1158204  45.8322910  94.2518998  41.0807050  46.4338535
  94.2000218  42.0817493  46.0039888  92.9874159  40.2953277  46.0198334
  92.5690822  39.3775084  46.7206706  92.4294145  40.6322538  44.8498730
  92.8720821  41.4024149  44.3607636  91.2541820  40.0111312  44.1789465
  91.2840900  38.9317305  44.3408028  89.9016638  40.5488979  44.7132458
  89.1372658  40.3248832  43.9690078  89.4475788  39.8449412  45.9939524
  90.1517154  40.0249103  46.7993158  88.4712445  40.2111189  46.3030722
  89.3809906  38.7697099  45.8199190  89.8828532  42.0721096  44.9180114
  90.2097304  42.5762524  44.0087071  88.8708629  42.3982064  45.1540238
  90.5409000  42.3510225  45.7421852  91.3000213  40.2473861  42.6553706
  92.0044876  41.1486262  42.1871933  90.5454290  39.4681540  41.8598799
  89.9841908  38.7405421  42.3120065  90.6372436  39.4331803  40.3774358
  91.6777345  39.2114995  40.1447973  89.7495693  38.2949743  39.8168644
  89.1327635  37.8733038  40.6057618  89.0617774  38.6836362  39.0627184
  90.5827527  37.1669744  39.1914562  91.3667116  36.8710373  39.8899282
  89.9448273  36.3061168  38.9940564  91.2092177  37.6213619  37.8729717
  90.4283105  37.7360653  37.1221115  91.6918032  38.5839798  38.0151490
  92.2582200  36.6263836  37.3874568  92.8558128  36.2851305  38.2376261
  91.7684290  35.7514608  36.9489002  93.1449654  37.2801565  36.4040868
  93.6021308  38.0901315  36.8116135  93.8902581  36.6412656  36.1213623
  92.6271483  37.5938310  35.5883917  90.3377710  40.7478229  39.6369012
  90.8418697  40.9523135  38.5296198  89.5153446  41.6121301  40.2261844
  89.1360814  41.3341233  41.1189857  89.1204090  42.9341631  39.7238571
  89.9932552  43.4270646  39.2928867  88.0469634  42.7590907  38.6197282
  88.4924700  42.1867882  37.8048745  87.2098574  42.1828199  39.0187180
  87.5040399  44.0779979  38.0334530  86.8119285  44.5224006  38.7481394
  88.3371353  44.7645249  37.8875867  86.7774804  43.9290814  36.6862245
  86.9025797  44.7663477  35.8022797  86.0019097  42.8884783  36.4609047
  85.4887650  42.8635486  35.5797078  85.8246195  42.1991721  37.1678189
  88.6193318  43.7654337  40.9191115  87.8815317  43.2283387  41.7481063
  89.0198987  45.0432184  41.0470612  89.6338902  45.4409008  40.3445261
  88.4223228  45.9648634  42.0393622  88.1494919  45.4115586  42.9399794
  89.3810916  47.1065448  42.4402970  89.6776774  47.6500750  41.5504420
  88.8358468  47.8220900  43.0568494  90.6553887  46.7064312  43.1947918
  91.0956427  45.8137542  42.7488517  91.3676350  47.5268166  43.0947710
  90.4053795  46.4789911  44.6899961  89.9190653  47.3626087  45.1083851
  89.7478489  45.6170261  44.8184049  91.6763968  46.2527670  45.3960146
  92.5298035  46.4705570  44.8864892  91.8315044  45.7730028  46.6149816
  90.8373993  45.5789791  47.4345727  89.9116563  45.8939701  47.1716668
  91.0301040  45.2766900  48.3839472  93.0148451  45.4644170  47.0406547
  93.8160548  45.5460390  46.4218846  93.0767016  44.8283225  47.8238598
  87.1259619  46.5802188  41.5145735  86.1692548  46.6758496  42.2650922
  87.1102585  46.9963182  40.2482814  87.9609396  46.8584709  39.7229942
  86.1578665  47.9832528  39.7141243  85.6177650  48.4500105  40.5406866
  86.9244618  49.0923950  38.9676854  87.2185413  48.7456216  37.9762032
  86.2697247  49.9569048  38.8485868  88.1058731  49.4816366  39.6461038
  88.2340950  50.4426572  39.4505623  85.1376709  47.3561948  38.7555614
  85.4798793  47.0870203  37.5999247  83.8893932  47.1486524  39.1892124
  83.6505081  47.4043791  40.1446115  82.8243051  46.5416838  38.3553412
  83.2003514  46.4163628  37.3399008  82.4307281  45.1322589  38.8516779
  81.7211059  44.7182440  38.1347702  83.6441360  44.1975865  38.8833604
  84.3339660  44.4903945  39.6751493  83.3104173  43.1752489  39.0594090
  84.1485929  44.2367809  37.9201350  81.7585706  45.1198551  40.2277780
  80.8310001  45.6899352  40.1950430  81.5179971  44.0939964  40.5098464
  82.4247602  45.5481236  40.9749948  81.5900949  47.4426736  38.2453620
  81.3260472  48.2517817  39.1341822  80.8292887  47.2933915  37.1542396
  81.0774277  46.5723277  36.4921007  79.6229695  48.0762737  36.8577447
  79.3872928  48.7192903  37.7045061  79.8355391  48.9673106  35.6262888
  80.2091266  48.3504786  34.8072030  78.8627301  49.3511476  35.3138068
  80.7514037  50.1595432  35.8106472  80.2431838  51.3565272  36.3555824
  79.2243229  51.3961960  36.7170683  81.0612054  52.5014838  36.4261611
  80.6803600  53.4245197  36.8386338  82.3914213  52.4421705  35.9596554
  83.1851428  53.5403309  36.0220343  82.8517832  54.1848874  36.6773815
  82.9055320  51.2387291  35.4352316  83.9269248  51.1983475  35.0858998
  82.0860513  50.0967837  35.3669351  82.4810043  49.1743891  34.9615134
  78.4193341  47.1652801  36.5890514  78.4169700  46.3693939  35.6466732
  77.3638607  47.3506535  37.3778478  77.4226428  48.0723823  38.0909011
  76.1204353  46.5739302  37.3143823  76.1513668  45.9114302  36.4484429
  75.9672028  45.6849047  38.5747472  75.0559920  45.0990068  38.4410168
  77.1329986  44.6849818  38.6770444  78.0692942  45.1991687  38.8927100
  76.9436935  43.9613400  39.4680350  77.2372203  44.1343016  37.7396875
  75.8075995  46.5088933  39.8756366  76.7643372  46.9567888  40.1483017
  75.0920254  47.3132057  39.7145820  75.2806337  45.6876058  41.0564704
  75.9785647  44.8919038  41.3141968  75.1526940  46.3403929  41.9201619
  74.3156268  45.2557931  40.7984676  74.9125405  47.5001158  37.1318066
  74.9835325  48.7038910  37.3942371  73.7836195  46.9243602  36.7225109
  73.8072300  45.9426818  36.4908752  72.4644290  47.5388590  36.9261640
  72.5732705  48.6165021  37.0301460  71.5168112  47.2766229  35.7469430
  71.3252438  46.2061639  35.6798463  70.1910627  48.0121496  35.9257006
  70.3755813  49.0773319  36.0702911  69.5698207  47.8750692  35.0446718
  69.6458316  47.6157925  36.7803373  72.0530572  47.7151123  34.5169517
  71.5426963  47.2369805  33.8374642  71.8458105  46.9717067  38.2073259
  71.9267464  45.7617588  38.4462824  71.2025142  47.8230707  39.0081702
  71.2010023  48.8097968  38.7636782  70.4557179  47.4348369  40.2047681
  70.3193620  46.3534474  40.2007965  71.2798747  47.8010998  41.4433472
  71.3791234  48.8850416  41.5154937  70.7767727  47.4232045  42.3341520
  72.2703077  47.3485203  41.3802154  69.0487213  48.0621695  40.2394863
  68.8359372  49.1681344  39.7390266  68.0938834  47.3205444  40.8035877
  68.3788262  46.4313813  41.2023618  66.7235599  47.7368474  41.1047036
  66.3734668  48.4153637  40.3264660  65.8467256  46.4658969  41.1004119
  65.8227476  46.0569293  40.0895632  66.3266341  45.7271463  41.7450981
  64.4017435  46.6463009  41.6056359  64.4120110  47.0656539  42.6098568
  63.5738114  47.5478190  40.6886902  63.5493958  47.1418432  39.6786628
  62.5580560  47.6229209  41.0783740  63.9957335  48.5492063  40.6722660
  63.7117880  45.2878533  41.6799058  64.2919218  44.6130233  42.3089657
  62.7297492  45.4117684  42.1326337  63.6061805  44.8554674  40.6856314
  66.6529564  48.4657261  42.4583553  67.2435255  48.0150055  43.4417312
  65.8980241  49.5642448  42.5184544  65.4802451  49.8967199  41.6570425
  65.4440647  50.1746733  43.7754767  66.2423928  50.0887303  44.5155534
  65.1673889  51.6774267  43.5519218  64.2690872  51.7793010  42.9415340
  64.9622867  52.1308299  44.5227996  66.3041510  52.4628386  42.8615476
  66.4245408  52.1080298  41.8379259  65.9583046  53.9491690  42.8040107
  65.8735156  54.3535883  43.8115976  66.7372731  54.4859766  42.2626648
  65.0170745  54.0784644  42.2716494  67.6436252  52.3300226  43.5848519
  67.9916699  51.3020992  43.5014993  68.3828080  52.9802010  43.1187418
  67.5349225  52.5936706  44.6364461  64.2144082  49.4283117  44.3407774
  63.1616309  49.4165357  43.6977370  64.3244670  48.8333956  45.5337824
  65.2047077  48.9025438  46.0318241  63.2478862  48.0769186  46.2072964
  62.3414314  48.1084564  45.6021530  63.6496386  46.5873854  46.3154353
  63.8878291  46.2181070  45.3159154  64.5518697  46.5283925  46.9210861
  62.5997957  45.6520360  46.9471772  61.7114524  46.1459445  47.6748039
  62.7036804  44.4185607  46.7495947  62.9125066  48.7166489  47.5706707
  63.6971407  48.6611163  48.5181299  61.7476471  49.3657900  47.6665502
  61.1688022  49.4516919  46.8381056  61.2435709  49.9895275  48.9053306
  62.0702248  50.5132627  49.3837272  60.1550520  51.0258739  48.5864802
  59.6958610  51.3635029  49.5131608  60.7449042  52.2520724  47.8896448
  61.2104336  51.9650957  46.9482349  59.9525342  52.9739854  47.6976124
  61.4963937  52.7104892  48.5307297  59.1484825  50.4783422  47.7619234
  58.4104166  50.1872903  48.3332149  60.7126987  48.9973194  49.9461460
  60.5624101  49.3705334  51.1112476  60.4538368  47.7417974  49.5745048
  60.6932318  47.4620388  48.6234501  60.1651699  46.6533184  50.5083007
  59.4542072  46.9939311  51.2583979  59.7266654  45.8232123  49.9550702
  61.4153011  46.1398827  51.2250675  61.3686217  45.8728098  52.4272376
  62.5247148  46.0127981  50.4944720  62.4514640  46.2381188  49.5039422
  63.8005287  45.4874708  50.9789138  63.6461203  44.4567147  51.2789267
  64.7905677  45.4908031  49.8111134  64.9158637  46.5061997  49.4424442
  65.7561992  45.0983143  50.1329110  64.4056401  44.8800067  48.9995138
  64.3773986  46.2411103  52.1916409  64.5654414  47.4584656  52.1566604
  64.7160819  45.5043605  53.2541561  64.4673666  44.5196776  53.2367169
  65.5185422  46.0137203  54.3789351  65.1447001  46.9983858  54.6617469
  65.3882789  45.0903266  55.6044627  65.7696445  44.1018667  55.3400326
  66.0236948  45.4905379  56.3947011  63.9791058  44.9303873  56.1844642
  63.0999568  45.8066335  55.9931216  63.7554284  43.9215112  56.8973464
  67.0083550  46.1895480  54.0165691  67.5815471  47.2500360  54.2642518
  67.6141021  45.1581911  53.4136824  67.0404783  44.3753625  53.1443087
  69.0615842  45.0116189  53.1837554  69.5678790  45.8866133  53.5819817
  69.6200386  43.7646850  53.9109984  68.9539121  42.9192698  53.7285758
  70.5847131  43.5172367  53.4638217  69.8566670  43.8962768  55.4227527
  70.4565620  42.9713227  56.0254693  69.5476809  44.9378913  56.0478825
  69.4169609  44.9037039  51.6865838  68.7129178  44.2536343  50.9132620
  70.5221463  45.5342013  51.2783392  70.9669828  46.1515123  51.9525840
  71.1853307  45.3350016  49.9687213  70.5067236  45.6881263  49.1952172
  72.4913960  46.1515223  49.8781483  73.1188945  45.7066477  49.1044437
  72.2510363  47.5950205  49.4604183  71.4690648  48.0385559  50.0720958
  73.1714677  48.1684556  49.5685232  71.9491035  47.6167799  48.4163549
  73.2449953  46.1621321  51.0745297  72.7047564  46.5522556  51.7802575
  71.5198209  43.8688358  49.6357245  72.0835996  43.1431549  50.4590236
  71.2791014  43.4530767  48.3786541  70.8410244  44.1061357  47.7349189
  71.5472283  42.0818908  47.8843992  72.3147425  41.6466398  48.5206777
  70.3039446  41.1611877  47.9668529  69.6295499  41.3995665  47.1436647
  70.7271389  39.6895791  47.8280392  71.4166804  39.4248347  48.6301871
  69.8511217  39.0444590  47.8959947  71.2196863  39.5203262  46.8709462
  69.4937098  41.2839628  49.2632354  69.0320803  42.2692573  49.3134752
  68.6957764  40.5421593  49.2842968  70.1363408  41.1489981  50.1309283
  72.0717574  42.0737991  46.4387969  71.4301909  42.6140057  45.5369454
  73.2180159  41.4291561  46.1989689  73.6912310  41.0022418  46.9907306
  73.8159189  41.2130597  44.8661591  73.3250774  41.8766603  44.1541857
  75.3219171  41.5731562  44.8683891  75.8423171  40.8338825  45.4802650
  75.9098313  41.4964715  43.4449251  75.3317542  42.1101474  42.7539015
  76.9425152  41.8434909  43.4388173  75.9026893  40.4682045  43.0839049
  75.6214662  42.9628219  45.4830887  75.3493887  42.9502588  46.5384190
  76.6969457  43.1385432  45.4395052  74.9136922  44.1526611  44.8163663
  73.8325337  44.0536775  44.9080465  75.2204504  45.0743614  45.3112658
  75.1835653  44.2145539  43.7632528  73.5698441  39.7720677  44.3795494
  73.5820347  38.8265728  45.1702069  73.3003617  39.6064936  43.0823241
  73.3414489  40.4198567  42.4749238  73.0577210  38.3075613  42.4430901
  72.3338051  37.7700832  43.0482498  72.4248238  38.5410733  41.0683305
  71.5968689  39.2461422  41.1603682  73.1712553  38.9615016  40.3910708
  71.9366397  37.3243341  40.5399736  70.9832553  37.2757734  40.7474519
  74.3244538  37.4409790  42.2923058  75.3930109  37.9522088  41.9596928
  74.1907208  36.1126784  42.3930747  73.3156184  35.7776017  42.7737556
  75.2182239  35.1127791  42.0201888  76.1132084  35.2797876  42.6224806
  74.7072104  33.6764560  42.2889273  73.6666029  33.6184735  41.9798508
  75.2705706  32.9719368  41.6751983  74.8275849  33.2036222  43.7468690
  75.8852456  33.0817637  43.9888268  74.4302620  33.9756137  44.4041517
  74.0919873  31.8706841  44.0044598  74.0982392  30.9616559  43.1350535
  73.4747773  31.7079020  45.0841819  75.6690282  35.2104162  40.5437480
  76.6714225  34.5978762  40.1746971  74.9361370  35.9324431  39.6878181
  74.0900857  36.3625866  40.0390068  75.3020869  36.2010525  38.2859770
  75.9681332  35.4077282  37.9436769  74.0157976  36.0932292  37.4417541
  73.5891612  35.1130216  37.6565037  73.2994013  36.8522500  37.7607806
  74.2456302  36.2219280  35.9244485  74.1857603  37.2771037  35.6471682
  75.2553028  35.8728000  35.6998455  73.2870858  35.4068059  35.0412798
  72.3918357  34.6846215  35.5320033  73.4867057  35.4177212  33.8012913
  76.0894740  37.5215949  38.0677042  76.6123759  37.7495963  36.9761812
  76.2293970  38.3730835  39.0942411  75.8084146  38.1158640  39.9784072
  76.9782694  39.6488876  39.0346613  77.5693992  39.6764354  38.1181975
  75.9836025  40.8313722  38.9956236  75.0881611  40.5696630  39.5620475
  76.4318942  41.6893506  39.4953391  75.5898336  41.2898634  37.5827703
  76.4574080  41.3386009  36.6803905  74.4024447  41.6611181  37.3861084
  78.0069074  39.8476104  40.1723119  78.8967192  40.6884351  40.0393130
  77.9468564  39.0893376  41.2758292  77.1826838  38.4322579  41.3758659
  78.9503027  39.1606048  42.3488566  79.0813206  40.2062686  42.6120780
  78.4430434  38.4537916  43.6150330  77.5058705  38.9143259  43.9268469
  78.2311353  37.4095145  43.3782208  79.3975605  38.5042775  44.7764172
  80.1877422  37.4857850  45.1862999  80.2009537  36.5045751  44.7263325
  80.9807034  37.8984544  46.2439087  81.7190420  37.3370648  46.6626282
  80.6930795  39.1943933  46.6089275  81.1754929  40.0270240  47.6294124
  81.9267305  39.6579510  48.3127811  80.6706550  41.3337420  47.7396680
  81.0336769  41.9901017  48.5165315  79.7002796  41.7902396  46.8294129
  79.3156139  42.7968134  46.9147978  79.2252363  40.9432640  45.8079954
  78.4761973  41.2982382  45.1194389  79.7010518  39.6199452  45.6736009
  80.3077070  38.5663399  41.9069718  80.3617403  37.3751517  41.5723715
  81.4319494  39.3142158  41.9766972  81.5308607  40.7529563  42.1769281
  81.7290834  40.9620339  43.2294627  80.6433749  41.2881250  41.8426506
  82.7192134  41.1801661  41.3235089  83.1557500  42.1149055  41.6738707
  82.4052235  41.2643700  40.2819908  83.6801413  40.0031102  41.4783614
  84.2705800  40.1463460  42.3827792  84.3377857  39.9093198  40.6139030
  82.7483920  38.7863397  41.6123084  82.6771299  38.2862207  40.6450919
  83.2051140  37.7889349  42.6838858  83.6186931  38.1614412  43.7752922
  83.0449264  36.4951948  42.4093594  82.6943709  36.2726606  41.4875412
  82.8352250  35.4871243  43.4684310  82.1792335  35.9359275  44.2090081
  82.0463284  34.3057807  42.8713440  82.4959346  34.0175513  41.9200916
  81.9137194  33.0547153  43.7397139  81.5150324  33.3204113  44.7191964
  81.2364485  32.3490034  43.2582807  82.8847921  32.5741323  43.8541059
  80.7176160  34.7363785  42.6486872  80.7039943  35.5500484  42.1170233
  84.0798576  35.1086348  44.2943997  83.9464902  34.4810309  45.3484811
  85.2829428  35.5556473  43.9141686  85.3647529  36.0887597  43.0541701
  86.4563137  35.5326233  44.8034383  86.4258989  34.6095654  45.3831905
  87.7760537  35.5058211  44.0190070  88.6105987  35.4991589  44.7224968
  87.8193854  34.5660998  43.4660942  87.9616971  36.6470552  43.0187670
  89.0626038  37.2483071  43.0071666  87.1194322  36.7728399  42.1008090
  86.4822053  36.6752446  45.8361031  87.2464631  36.5804207  46.7962570
  85.6365391  37.7089310  45.7135092  84.9949605  37.7369131  44.9260930
  85.4057071  38.6597418  46.8054300  86.3650876  39.0673935  47.1133982
  84.5139391  39.8336522  46.3644580  83.5670604  39.4342404  46.0029847
  84.2839952  40.4180052  47.2561512  85.0219085  40.8063769  45.3347888
  86.1552926  40.7140758  44.5975355  86.8510444  39.8838846  44.6352955
  86.2654666  41.8192322  43.7712702  87.0131903  41.9708985  43.0993732
  85.1862434  42.6598677  43.9066421  84.8383541  43.8677367  43.2895035
  85.4829436  44.2918311  42.5371930  83.6348390  44.4991885  43.6424912
  83.3544746  45.4303794  43.1695547  82.7884115  43.9002602  44.5927850
  81.8497441  44.3711307  44.8495081  83.1476862  42.6802081  45.2012777
  82.4832377  42.2174045  45.9154962  84.3620763  42.0321080  44.8845017
  84.7452214  37.8934137  47.9711456  83.6505923  37.3424161  47.7987335
  85.3963959  37.8075319  49.1472765  86.6455412  38.4729734  49.5014625
  86.5541855  39.5572877  49.4223701  87.4504790  38.1168574  48.8567842
  86.9438652  38.0720678  50.9420516  86.4650427  38.7782740  51.6180301
  88.0165788  38.0270390  51.1334945  86.2866775  36.6951627  51.0507153
  86.0193666  36.4448601  52.0744926  86.9668193  35.9422992  50.6487220
  85.0568002  36.7962599  50.1443970  84.9228526  35.8398786  49.6375295
  83.7628223  37.0984293  50.9123798  83.3530260  38.2515010  51.0682573
  83.1344916  36.0420780  51.4397721  83.5364301  35.1285059  51.2765032
  81.8252250  36.0846605  52.1238806  81.6031856  37.1190707  52.3751953
  80.6981748  35.5926508  51.1832816  79.7497691  35.7263477  51.6989587
  80.6090294  36.4134798  49.8902697  81.4875219  36.2468899  49.2660385
  79.7229570  36.1193226  49.3269835  80.5343314  37.4741330  50.1247653
  80.8260041  34.1068930  50.8235622  80.7952749  33.4906039  51.7217135
  79.9987794  33.8136235  50.1763663  81.7600755  33.9234854  50.2916697
  81.8322844  35.3081885  53.4551138  82.8620490  34.7553556  53.8489863
  80.7073743  35.3105634  54.1787300  79.9435314  35.8832092  53.8319879
  80.4584023  34.6096757  55.4523834  81.0390790  33.6856385  55.4811388
  80.8426373  35.4915593  56.6556560  80.1818621  36.3582949  56.6729111
  80.6791572  34.9216912  57.5716484  82.2937360  35.9820945  56.6490666
  82.9453242  35.1143452  56.5526142  82.4462791  36.6277257  55.7853371
  82.8115687  36.8978817  58.1239322  81.6310052  38.2714256  58.1169828
  80.6386781  37.8987902  58.3693958  81.9310473  39.0052519  58.8627324
  81.6129164  38.7395613  57.1339335  78.9659280  34.2601624  55.5869211
  78.1099348  34.9895721  55.0873238  78.6213898  33.2018358  56.3210122
  79.3527936  32.6823233  56.7957789  77.2350082  32.7086413  56.4940552
  76.6730255  32.8676758  55.5724402  77.2680272  31.1935409  56.7736175
  77.6593618  31.0510442  57.7793070  76.2511243  30.7990107  56.7583672
  78.1443041  30.3676060  55.8189008  79.1411105  30.8007839  55.7592722
  78.2592774  29.3717134  56.2489486  77.5576527  30.2107660  54.4154903
  78.3221237  30.2799468  53.4224778  76.3649118  29.8501613  54.2907221
  76.4769530  33.4485302  57.6245626  75.5981996  32.8918531  58.2836783
  76.8594792  34.7035323  57.8724844  77.5338287  35.1017908  57.2404871
  76.4228079  35.5212161  58.9994949  76.5609890  34.9281134  59.9050962
  77.3442914  36.7420219  59.0815919  77.1051778  37.4169943  58.2642750
  77.1915614  37.2633888  60.0274956  78.3880300  36.4337195  59.0134138
  74.9429420  35.9530387  58.9380109  74.3028863  35.9245405  57.8868675
  74.4281448  36.4031370  60.0883276  75.0336900  36.3794207  60.8937028
  73.1090179  37.0155225  60.2829677  73.1164548  37.4339411  61.2898526
  72.8715743  38.2060822  59.3369771  72.7726609  37.8813735  58.3013283
  71.9525352  38.7187034  59.6240396  73.7028504  38.9078743  59.4116386
  71.9880437  35.9637653  60.2851007  71.5198220  35.5914735  61.3628305
  71.5835015  35.4771813  59.1071005  72.0623982  35.8262535  58.2833021
  70.6096850  34.3985699  58.8939592  70.9876206  33.5245662  59.4195524
  69.2307012  34.7607335  59.4946034  69.3228736  35.2563022  60.4559350
  68.7030955  35.4473579  58.8367899  68.4022000  33.5095066  59.7040181
  67.7249423  33.0163931  58.8173893  68.4858665  32.9189458  60.8715486
  68.0152065  32.0243061  60.9608792  69.0480315  33.3066917  61.6066948
  70.4551430  34.0910164  57.3815724  70.3129851  35.0337499  56.5991101
  70.4115067  32.8166216  56.9375665  70.7208743  31.6050595  57.6741632
  69.7888737  31.1480914  58.0084974  71.3889190  31.7716702  58.5171591
  71.4115024  30.7006174  56.6610882  71.2671026  29.6481526  56.9025859
  72.4748912  30.9429587  56.6253045  70.7621524  31.0693374  55.3270312
  70.0152387  30.3218477  55.0610890  71.5244073  31.1158454  54.5492452
  70.1369077  32.4609050  55.5434209  70.6369011  33.1668608  54.8793070
  68.6164542  32.5260517  55.2972065  67.8999936  31.5288777  55.4423149
  68.1469561  33.7441594  55.0034730  68.8440652  34.4744818  54.9442887
  66.7679894  34.2042416  55.2161738  66.2040541  33.3892088  55.6728748
  66.8456939  35.3575075  56.2466003  67.5331199  35.0381063  57.0248185
  67.2909702  36.2466742  55.7975635  65.5237188  35.6948799  56.9584108
  64.7904311  34.9330655  56.7181240  65.7012919  35.6385209  58.0328855
  64.9362342  37.0760440  56.6542530  65.1347143  37.6689597  55.6067441
  64.1566939  37.6429787  57.5444125  63.8430473  38.5758187  57.3512952
  63.9885330  37.1779542  58.4341945  66.0467219  34.5503541  53.8919958
  65.7075416  33.6528108  53.1243658  65.7833814  35.8369133  53.6242961
  65.9997300  36.5156155  54.3459565  65.2835123  36.3986763  52.3570465
  64.9818184  37.4223654  52.5741534  66.4399302  36.5107233  51.3261656
  66.7929191  35.5038681  51.1045471  66.0351049  37.1677485  49.9927106
  65.4356945  38.0604673  50.1704215  66.9175180  37.4345684  49.4105888
  65.4648173  36.4614169  49.3951172  67.6445006  37.2997310  51.8964601
  68.0769119  36.7509981  52.7328133  68.4032883  37.3498081  51.1206692
  67.3668500  38.7402534  52.3512327  66.6590179  38.7536300  53.1795347
  68.2988203  39.1947813  52.6869504  66.9756267  39.3276551  51.5221061
  63.9743489  35.7337890  51.8846678  63.8273550  35.2964220  50.7460651
  62.9992795  35.6516085  52.7968468  63.2002404  35.9779347  53.7265306
  61.6096044  35.3234054  52.4553668  61.6026476  34.3677327  51.9338812
  60.7175164  35.2054190  53.7046198  60.3487547  36.1939086  53.9737898
  59.8430115  34.6062838  53.4467809  61.3497811  34.6288813  54.9390402
  61.3404656  33.3153574  55.3442181  60.8936523  32.5419107  54.8697252
  61.9328050  33.2504811  56.5478247  62.0589602  32.3421860  57.1251536
  62.3204573  34.4766555  56.9466314  61.9748470  35.3522750  55.9143143
  62.1262264  36.4228025  55.9081875  60.9964216  36.4033634  51.5487242
  61.1262874  37.5923680  51.8503517  60.2393309  35.9902032  50.5321638
  60.2234398  34.9951524  50.3326771  59.4206676  36.8804987  49.7011808
  59.0572955  37.7152743  50.3018096  60.0378117  37.2880079  48.8993053
  58.2105323  36.1471612  49.1119072  57.4638102  35.4707591  49.8297836
  58.0243067  36.2615245  47.7937834  58.6463388  36.8677327  47.2801289
  57.2127841  35.3171769  47.0087419  56.5813523  34.7803802  47.7150371
  56.2340384  35.9997133  46.0253399  55.6645687  35.1901009  45.5686717
  55.2026386  36.8437606  46.7933462  55.6856574  37.6454709  47.3516346
  54.4940964  37.2887393  46.0921436  54.6451028  36.2168589  47.4889404
  56.8564913  36.7598745  44.8356513  57.5825004  36.1186350  44.3348774
  56.0576774  36.9587180  44.1191248  57.5209006  38.1021694  45.1594086
  58.4490416  37.9499921  45.7086906  57.7411762  38.6047543  44.2217555
  56.8513063  38.7459745  45.7283176  58.0968780  34.2422718  46.3534761
  59.2674513  34.4689446  46.0317295  57.5448352  33.0331252  46.2490707
  56.5788125  32.9323970  46.5220283  58.2574535  31.7985129  45.9163352
  57.6043573  31.1620097  45.3258742  59.1450599  32.0125225  45.3234965
  58.6672712  31.0231459  47.1691987  58.1271555  29.9486294  47.4344702
  59.5802554  31.5879037  47.9639479  59.9233602  32.5084561  47.7274673
  60.0759738  30.9806241  49.2036412  59.2380699  30.8138351  49.8817047
  60.5270179  30.0155267  48.9701611  61.1045756  31.8605622  49.9210100
  60.9585832  33.0843252  49.9379579  62.1357292  31.2290947  50.4962702
  62.1885506  30.2272539  50.3811536  63.3044061  31.8635740  51.1271978
  63.2296843  32.9450046  51.0409870  63.3327090  31.6048950  52.1858438
  64.6259842  31.4179084  50.4825081  64.6695532  30.3889391  49.8061033
  65.7064816  32.1814108  50.6795498  65.6305817  32.9450845  51.3483104
  66.9554694  32.0936457  49.9012479  66.9777890  31.1395289  49.3900800
  66.9472475  33.1817322  48.7958601  66.6849182  34.1312051  49.2625296
  68.3338964  33.3678303  48.1599119  68.7356672  32.4107581  47.8258662
  68.2633595  34.0481972  47.3100498  69.0138460  33.8120474  48.8869586
  65.8984960  32.9204877  47.6849710  64.9062865  32.8631327  48.1318753
  65.8874287  33.7808746  47.0143665  66.1250548  31.6598883  46.8321529
  66.0900290  30.7639571  47.4499800  65.3412314  31.5842622  46.0806437
  67.0843683  31.7113963  46.3186308  68.2032128  32.1942534  50.8172629
  68.3648189  33.2010600  51.5130260  69.1302103  31.2047166  50.8203443
  68.9834128  29.8644392  50.2593127  69.5369956  29.7960839  49.3210701
  67.9455556  29.5711756  50.1092119  69.5975813  28.9327387  51.2969829
  69.9149296  27.9831152  50.8675844  68.8892241  28.7709481  52.1046122
  70.7732456  29.7468179  51.8143476  71.6200037  29.5827207  51.1530963
  71.0385802  29.4598405  52.8313776  70.2808081  31.2018669  51.7357020
  69.9183469  31.4841321  52.7224874  71.4020383  32.1837203  51.3358734
  72.3965622  31.8325537  50.6994609  71.2450161  33.4436495  51.7326874
  70.3502269  33.6956472  52.1342305  72.2891932  34.4782493  51.6397241
  72.5636974  34.5491825  50.5922036  71.7842668  35.8662669  52.0827887
  72.6423562  36.5113767  52.2732513  70.9941972  36.5180937  50.9486667
  70.1393020  35.8959897  50.6816572  70.6556567  37.5056230  51.2613434
  71.6352377  36.6402959  50.0755516  70.9430655  35.8268935  53.3643878
  71.5070125  35.3348483  54.1576361  70.7142098  36.8422839  53.6866512
  70.0064736  35.2969317  53.1961615  73.5957265  34.1405087  52.3688271
  73.6427031  33.3411423  53.3083624  74.6623255  34.8063698  51.9173343
  74.5357519  35.3347044  51.0579969  75.9282014  35.0283630  52.6342870
  75.8512996  34.6578228  53.6593271  77.0756214  34.2974595  51.9045512
  77.2010003  34.7260558  50.9089918  77.9896130  34.5006472  52.4614578
  76.9674878  32.7627928  51.7742313  77.9611592  32.3983871  51.5109183
  76.7000496  32.3396319  52.7418722  75.9746990  32.2560152  50.7102678
  74.9841896  32.1889928  51.1590430  75.9336561  32.9718356  49.8864468
  76.3685496  30.9386894  50.1668918  77.3510995  30.7093938  50.1703711
  75.5865311  30.0375667  49.5969528  74.2909491  30.1383113  49.5383928
  73.8163393  30.9119878  49.9931860  73.7248434  29.3605887  49.2190362
  76.1247842  28.9894297  49.0470791  77.1355285  28.8939126  49.0755321
  75.5537143  28.3649916  48.5078951  76.1950399  36.5466196  52.6788463
  75.8823337  37.2246108  51.7013205  76.7540809  37.1082097  53.7612289
  77.0529029  36.4859767  54.5034684  77.2409625  38.5137050  53.7696040
  76.5924887  39.0780362  53.0943499  77.1207964  39.2190731  55.1442025
  77.0434604  40.2876441  54.9407106  76.1868792  38.9140280  55.6190043
  78.2857217  39.0155254  56.1383692  78.2970235  37.9680900  56.4389547
  79.2385003  39.2200206  55.6595065  78.1879900  39.9082283  57.3961386
  77.1944406  39.7794833  57.8287283  78.9056965  39.5570617  58.1395789
  78.4120706  41.4185532  57.1722838  77.7571692  41.7566200  56.3645717
  78.1063159  41.9415058  58.0854923  79.8239170  41.7770192  56.8667312
  80.1648720  41.2903011  56.0394881  79.9163546  42.7674235  56.6809376
  80.4511515  41.5915826  57.6485147  78.6440013  38.6190447  53.1819487
  79.4839128  37.7613357  53.4412454  78.9276091  39.6912269  52.4510514
  78.1730733  40.3289074  52.2266674  80.3010065  40.1175259  52.1340773
  80.7487995  39.3715812  51.4722530  80.2552547  41.4433392  51.3656630
  81.2643554  41.8438763  51.2596792  79.8415062  41.2611063  50.3736859
  79.4345847  42.3817416  52.0264809  78.5103240  42.1916235  51.7791257
  81.1922690  40.2317152  53.3905296  80.7833648  40.7512134  54.4333783
  82.4259102  39.7206531  53.3013482  82.6943104  39.2919238  52.4187059
  83.4269176  39.6810002  54.3961806  82.9123986  39.4899285  55.3399944
  84.3849015  38.5021167  54.1208335  83.7794154  37.6107386  53.9509177
  84.9366037  38.7171266  53.2110631  85.3955434  38.1956262  55.2421051
  86.0318312  39.0656094  55.4029248  84.8591186  37.9881140  56.1689600
  86.3068754  37.0017200  54.9071222  86.8582506  37.2146366  53.9905082
  87.0370158  36.9074691  55.7139549  85.5500459  35.7389932  54.7653663
  84.6182754  35.7818196  54.3801072  85.8664962  34.5725029  55.2946827
  87.0449645  34.2850170  55.7575226  87.8539244  34.8672053  55.5494606
  87.1560715  33.5032728  56.3866471  84.9549383  33.6556220  55.3707573
  84.0437536  33.8204262  54.9616106  85.1379169  32.7931570  55.8766390
  84.1826708  40.9973029  54.5743716  84.6558291  41.2913238  55.6713444
  84.2554799  41.8142225  53.5237154  83.7681208  41.5411938  52.6861703
  85.0225349  43.0587149  53.4393510  85.2021205  43.4322684  54.4516591
  86.3928644  42.7840880  52.7923863  86.2931757  42.0137946  52.0249254
  86.7533491  43.6934689  52.3112223  87.4154484  42.3800332  53.8466274
  87.6312357  43.1917166  54.7772912  87.9973069  41.2790285  53.7633999
  84.2484334  44.1698974  52.7218334  83.2853049  43.9056045  52.0068161
  84.6133155  45.4121770  53.0377483  85.4661049  45.5442231  53.5606520
  83.7916148  46.5963725  52.8010364  82.7637907  46.3582740  53.1256016
  84.3096127  47.7194011  53.7022916  84.3176275  47.3510521  54.7307520
  85.3232870  47.9614086  53.4180823  83.4451308  48.9814640  53.6587600
  83.4804617  49.4200645  52.6701509  82.4150791  48.7062479  53.8831229
  83.9722665  50.2198845  54.8803764  85.5132898  50.8020244  54.1195014
  85.3099773  51.1651473  53.1088792  85.9265222  51.6140607  54.7188295
  86.2395715  49.9876907  54.0694159  83.7216136  47.0020206  51.3248245
  84.7388071  47.3027590  50.6893114  82.5007139  47.0586021  50.7920679
  81.7072712  46.8684556  51.3932749  82.1935283  47.5006086  49.4326747
  83.0751936  47.3295129  48.8096828  81.0446731  46.6638655  48.8240142
  80.1375949  46.8663958  49.3937392  80.7705551  47.0827342  47.3637808
  81.6852098  47.0209822  46.7703282  80.0115781  46.4326979  46.9259407
  80.4001204  48.1088588  47.3321694  81.3020718  45.1374807  48.8976973
  81.2544138  44.8202856  49.9398402  80.4984704  44.6203263  48.3733477
  82.6439901  44.6637843  48.3167452  83.4648196  45.0288855  48.9329496
  82.6808585  43.5756594  48.3199124  82.7646597  45.0180061  47.2940728
  81.8953710  49.0055308  49.3949509  81.0146372  49.4987712  50.1004107
  82.6576697  49.7211099  48.5752922  83.3666347  49.2218268  48.0487980
  82.3946853  51.0931869  48.1500321  81.9220206  51.6314844  48.9682868
  83.7555460  51.7456124  47.8487989  84.3185747  51.7390004  48.7815676
  84.2965787  51.1297614  47.1325214  83.7212893  53.1813946  47.3169856
  83.3053003  53.1834301  46.3074395  83.0743486  53.7868912  47.9533318
  85.1352242  53.7880084  47.3101876  85.7979325  53.8443421  48.3755903
  85.6339225  54.2128700  46.2458218  81.4243699  51.0941729  46.9543323
  81.6256958  50.3618062  45.9827406  80.3459754  51.8767522  47.0494620
  80.2375836  52.4228246  47.8992637  79.1754224  51.8150279  46.1649026
  79.4158956  51.2086151  45.2914229  78.0450718  51.1124546  46.9519234
  78.4341267  50.1347807  47.2457082  77.8440817  51.6661837  47.8706502
  76.7206624  50.8969206  46.1896556  76.9369687  50.6804708  45.1442747
  75.9680062  49.7034887  46.7852369  75.6838267  49.9136411  47.8160559
  75.0714987  49.5024013  46.2019532  76.5974348  48.8149210  46.7630416
  75.7582592  52.0887045  46.2638671  76.1792472  52.9592899  45.7701485
  74.8221228  51.8379228  45.7656900  75.5518361  52.3376230  47.3047077
  78.7788011  53.2172062  45.6798569  78.5960373  54.1207053  46.4974611
  78.5982995  53.3949686  44.3644818  78.8158934  52.6218129  43.7390429
  78.1515004  54.6725832  43.7862064  77.6014789  55.2438366  44.5345026
  79.0324669  55.2555006  43.5172410  77.2748660  54.5368944  42.5319858
  77.7176778  54.0185306  41.5057084  76.0611332  55.0891781  42.5898355
  75.7991772  55.5157949  43.4660812  75.1343200  55.3019436  41.4504569
  74.9221620  54.3339076  40.9961534  73.8003337  55.8818166  41.9832041
  74.0163895  56.7901725  42.5467407  72.7867014  56.2380721  40.8873636
  72.6397984  55.3888010  40.2208924  71.8309667  56.5073817  41.3363431
  73.1328904  57.1003586  40.3171842  73.1098494  54.8852466  42.9295379
  73.7543734  54.6390150  43.7727729  72.1947652  55.3255733  43.3271495
  72.8570436  53.9709961  42.3922387  75.7470123  56.2004958  40.3567859
  76.6019471  57.0334492  40.6615074  75.3162660  56.0500138  39.0956355
  74.7016664  55.2639213  38.9061804  75.6102929  56.9591875  37.9698989
  75.9851832  57.9017154  38.3730129  76.6936203  56.3870720  37.0156053
  76.2934682  55.5122843  36.4996182  77.0350023  57.4449504  35.9501903
  77.3937318  58.3570937  36.4322355  77.8135821  57.0715740  35.2859010
  76.1563446  57.6849076  35.3540929  78.0125504  55.9815007  37.7096993
  78.8526643  56.1217262  37.0281698  78.1835459  56.6343768  38.5618924
  78.0508633  54.5097546  38.1402617  78.0040118  53.8666023  37.2616524
  78.9845973  54.3228191  38.6665301  77.2223369  54.2706694  38.8028262
  74.3216054  57.2621808  37.1807535  73.7595613  56.3715582  36.5342564
  73.8277756  58.5012259  37.2356194  74.3245616  59.1805534  37.8035098
  72.6725342  58.9870121  36.4574828  71.9342301  58.1844518  36.4649066
  71.9709566  60.1954103  37.1393074  71.6752190  60.9252904  36.3856911
  71.0494543  59.8364474  37.5958584  72.7335743  60.9172322  38.2452834
  73.1270360  60.3443291  39.2500596  72.9347967  62.2026988  38.1137761
  73.5417530  62.6432927  38.7790836  72.7044064  62.6730004  37.2342381
  72.9835365  59.2116299  34.9540835  74.1445269  59.2207628  34.5277501
  71.9473490  59.4255840  34.1223663  71.0116526  59.3945975  34.5255358
  72.0271832  59.6039280  32.6501994  72.7906364  58.9258396  32.2697900
  70.6655757  59.1821461  32.0386149  70.2694549  58.3574264  32.6272077
  69.9578967  60.0068272  32.1368266  70.6959712  58.6560823  30.5870531
  71.7049109  58.7301822  30.1780474  70.4205005  57.6009381  30.6005192
  69.7157889  59.3777691  29.6502869  69.5984796  58.7886227  28.7387765
  68.7381941  59.4600347  30.1314949  70.2407034  60.7142517  29.3406278
  70.4544006  61.2919949  30.1453984  70.8574461  61.0818486  28.2372113
  70.7278068  60.4887280  27.0875906  70.0605917  59.7386104  26.9357298
  71.2760224  60.8383536  26.3152187  71.6999473  62.0698702  28.2713694
  71.9396781  62.4766611  29.1671138  72.2453195  62.2501704  27.4410720
  72.4822416  61.0271768  32.2455717  71.9958904  61.6178226  31.2822079
  73.4721789  61.5435641  32.9706874  73.7627815  60.9855915  33.7610597
  74.1306490  62.8543312  32.8028666  74.0721475  63.1596586  31.7577482
  73.3800777  63.8976539  33.6474628  73.8970846  64.8539476  33.5790189
  72.3802789  64.0236588  33.2312009  73.2663419  63.5188443  35.1247704
  74.3072295  63.2185535  35.7535909  72.1295689  63.4981267  35.6514955
  75.6337427  62.8129712  33.1903389  76.3360353  63.8333269  33.2033362
  76.1400675  61.6128929  33.5026089  75.5059183  60.8269963  33.5157071
  77.5416802  61.3441536  33.8258798  77.7459873  60.2880167  33.6531885
  78.1809221  61.9220829  33.1570978  77.9472772  61.6681113  35.2684706
  79.0792064  61.3515450  35.6406770  77.0687941  62.2838724  36.0688209
  76.1404725  62.4902982  35.7057751  77.3119303  62.5771096  37.4867216
  78.3895375  62.6127195  37.6411842  76.7847273  63.9762519  37.8268981
  77.2522117  64.3062929  38.7556264  77.0761322  64.6738039  37.0395735
  75.3795187  64.0128231  37.9929063  74.9612369  63.7184500  37.1392958
  76.7895859  61.4669480  38.4173607  76.3937304  60.3910061  37.9606621
  76.8492648  61.7010522  39.7323113  77.1081152  62.6217549  40.0539020
  76.6341381  60.6838356  40.7627929  75.8755456  59.9886007  40.3964851
  77.9353462  59.8746614  40.9804029  77.7994703  59.2362152  41.8550439
  78.0357741  59.2163631  40.1166789  79.2783684  60.6291885  41.1247859
  79.4663519  61.2128391  40.2232815  79.3769792  61.5575291  42.3345112
  79.0408227  61.0420621  43.2349700  80.4055330  61.8899272  42.4751138
  78.7691795  62.4440004  42.1724997  80.4052828  59.6005470  41.2520111
  80.4070257  58.9416942  40.3849349  81.3680633  60.1045788  41.3346794
  80.2497146  59.0000211  42.1496286  76.0785357  61.2651171  42.0728757
  76.3134747  62.4235109  42.4194500  75.3297733  60.4415472  42.8030141
  75.1714572  59.5196528  42.4329646  75.0524830  60.6415621  44.2319062
  74.7903349  61.6874255  44.4035905  73.8840947  59.7444638  44.6685698
  74.1085718  58.7076911  44.4111577  73.7736229  59.8047516  45.7521516
  72.5522095  60.1424876  44.0230072  72.6142992  59.9913694  42.9431244
  71.7753807  59.4763238  44.4046468  72.1588960  61.5937423  44.3271344
  72.3131615  62.0515034  45.4840235  71.5999662  62.2703974  43.4429094
  76.2852803  60.3431648  45.0959687  77.1951292  59.6257151  44.6683217
  76.3078503  60.8664975  46.3285089  75.5093038  61.4094856  46.6487058
  77.4438501  60.7044365  47.2445851  78.3119482  61.0913033  46.7173246
  77.2101248  61.5979030  48.4747434  76.7744958  62.5383809  48.1300651
  76.4921337  61.1353442  49.1534161  78.5042676  61.9652935  49.2164374
  79.2784423  62.1780448  48.4811359  78.3139683  62.8877985  49.7635866
  79.0511517  60.9163567  50.1985453  79.2594598  59.9910102  49.6646136
  80.0004566  61.2754818  50.6011965  78.1212612  60.6394444  51.3093800
  77.6516019  59.7474463  51.2839553  77.8411120  61.4429613  52.3221815
  78.4297863  62.5983468  52.4772805  79.1358500  62.8913487  51.8108918
  78.1184645  63.2328674  53.1957512  76.9492743  61.0974540  53.2042912
  76.4240245  60.2329574  53.1130183  76.6912006  61.7277801  53.9585482
  77.6576757  59.2155931  47.6015914  76.7170432  58.5917256  48.0980366
  78.8640578  58.6417615  47.3928100  79.9928643  59.2362558  46.6823977
  80.5772724  59.8478219  47.3710970  79.6709324  59.8296356  45.8263451
  80.8358944  58.0673355  46.1787920  81.8887483  58.3360040  46.0896291
  80.4436313  57.7156337  45.2233695  80.6073145  57.0074985  47.2505117
  81.2519222  57.2121895  48.1076572  80.7842671  56.0009098  46.8698285
  79.1392845  57.2210718  47.6322361  78.5147993  56.6520764  46.9434382
  78.8636149  56.7169930  49.0579896  78.8894468  57.4770852  50.0296220
  78.6371372  55.4046394  49.1699363  78.6702042  54.8535676  48.3167087
  78.3594603  54.6799248  50.4163070  78.4327744  55.3693162  51.2581722
  76.9298848  54.1014269  50.3684839  76.8905546  53.3624298  49.5667608
  76.7341333  53.5801386  51.3070094  75.8032041  55.1288090  50.1308992
  75.9653071  55.6439341  49.1845582  74.4615343  54.4012482  50.0493697
  74.2597125  53.8746233  50.9823117  73.6620977  55.1186867  49.8627494
  74.4821957  53.6892219  49.2250829  75.7003607  56.1665313  51.2518854
  76.6226723  56.7444995  51.2952156  74.8816890  56.8467214  51.0197750
  75.5220413  55.6682856  52.2054354  79.3877349  53.5571850  50.6440805
  79.8464290  52.9335543  49.6882655  79.7406441  53.3032473  51.9093781
  79.3055381  53.8470425  52.6383675  80.6803793  52.2568330  52.3400420
  81.0602751  51.7148194  51.4726351  81.8718917  52.8999040  53.0806343
  81.5038716  53.3612865  53.9977115  82.5527190  52.1012455  53.3656702
  82.6754629  53.9643427  52.3121336  82.0327366  54.8138263  52.0797506
  83.8276384  54.4574156  53.1858382  84.4989204  53.6343742  53.4283869
  84.3829364  55.2317750  52.6575013  83.4343258  54.8853226  54.1081607
  83.2684541  53.4221932  51.0154407  82.4627487  53.2223014  50.3158071
  83.9292897  54.1628810  50.5637930  83.8305464  52.5078856  51.2048783
  79.9564707  51.2517099  53.2539296  79.5199997  51.6270478  54.3470553
  79.7839336  50.0036560  52.8028597  80.2016692  49.7526946  51.9087152
  78.8418119  49.0405215  53.4021786  78.9420699  49.1175875  54.4861461
  77.3907540  49.4656493  53.0471504  76.6929472  48.6926975  53.3700270
  77.1634487  50.3510659  53.6424519  77.0941063  49.8237663  51.5729815
  77.7255574  50.6548948  51.2594007  77.3140522  48.6513423  50.6200139
  76.7273774  47.7941716  50.9494535  77.0090026  48.9323462  49.6136089
  78.3725959  48.3966960  50.5864405  75.6368957  50.2710543  51.4388236
  75.4487106  51.1202980  52.0963376  75.4399682  50.5746436  50.4112904
  74.9665500  49.4525191  51.7065958  79.1610612  47.5618984  53.0722144
  80.1464536  47.2607021  52.3999080  78.3413102  46.6296680  53.5765854
  77.5459978  46.9426582  54.1117769  78.4958874  45.1756544  53.3999592
  79.3270472  44.9647750  52.7250694  78.8279486  44.5178640  54.7525940
  78.0172962  44.7253068  55.4534828  78.8472593  43.4375011  54.6021134
  80.1325125  44.9131089  55.4141115  80.1433326  45.9003448  56.4188200
  79.2372949  46.4335285  56.6723420  81.3318110  46.1910114  57.1108983
  81.3387920  46.9534827  57.8795439  82.5075338  45.4806121  56.8168586
  83.4163288  45.6913083  57.3651083  82.4986570  44.4948281  55.8157556
  83.4028600  43.9477095  55.6020606  81.3184976  44.2212947  55.1008019
  81.3225045  43.4732420  54.3175298  77.2192904  44.5230779  52.8129290
  76.3586592  44.0940298  53.5864497  77.0855289  44.4015289  51.4761392
  77.9412962  44.9989570  50.4628441  78.7628173  44.3190326  50.2351981
  78.3319827  45.9657854  50.7759204  77.0509976  45.1642214  49.2334181
  77.6316018  45.1716909  48.3104906  76.4546342  46.0727309  49.3224362
  76.1373020  43.9442030  49.3229194  76.6444044  43.0851041  48.8789753
  75.1825800  44.1183243  48.8250836  75.9522556  43.7287536  50.8313782
  75.0330265  44.2219210  51.1516270  75.8514584  42.2284196  51.1492420
  76.8639816  41.5659864  51.4234318  74.6303505  41.6922684  51.0723937
  73.8515706  42.3194860  50.8833678  74.3380701  40.2549953  50.9960098
  75.0450547  39.7191282  51.6263374  72.9137914  39.9977513  51.5270122
  72.2093301  40.4459394  50.8279746  72.7359343  38.9229514  51.5322127
  72.6110791  40.5537696  52.9341279  72.7528761  41.6340532  52.9471597
  71.1559964  40.2650009  53.3007321  70.9708252  39.1927945  53.3138210
  70.9360384  40.6830519  54.2839924  70.4973375  40.7423174  52.5746505
  73.5123248  39.9256267  54.0006058  74.5432065  40.2267919  53.8276465
  73.2108935  40.2838340  54.9855379  73.4301346  38.8391847  53.9723323
  74.4998377  39.7074479  49.5605066  74.4674844  40.4672103  48.5917823
  74.6373742  38.3843194  49.4165400  74.7462174  37.8329394  50.2602368
  74.8504200  37.6832431  48.1322502  74.5152215  38.3266478  47.3224955
  76.3508665  37.3817931  47.9080297  76.6829709  36.6663906  48.6618508
  76.5969066  36.7671566  46.5225453  76.2341180  37.4401243  45.7441529
  77.6640415  36.5997032  46.3777726  76.0935376  35.8053557  46.4322090
  77.2381881  38.6283531  48.0290238  77.1872667  39.0379811  49.0365288
  78.2748358  38.3594849  47.8327859  76.9203193  39.3862297  47.3130103
  74.0514768  36.3715441  48.0718862  74.1358711  35.5744416  49.0103305
  73.2961579  36.1488524  46.9833998  73.2880998  36.8702591  46.2673178
  72.5868884  34.8957308  46.6423404  73.2797391  34.0587799  46.7504284
  71.4129525  34.6900741  47.6078983  70.6846851  35.4948335  47.4911817
  70.9411811  33.7315913  47.3991284  71.7633497  34.6665403  48.6338464
  72.0731997  34.8957960  45.1801531  72.2631236  35.8738269  44.4632880
  71.3606485  33.8547617  44.7183566  71.3363562  33.0249922  45.2964639
  70.8481192  33.7429757  43.3302249  71.6285082  34.1265643  42.6786084
  70.6552114  32.2549909  42.9719902  71.5333463  31.7003468  43.2887045
  69.8098396  31.8669501  43.5418313  70.4299636  31.9249542  41.4841865
  70.3989531  30.8386556  41.4124126  69.4530263  32.2802776  41.1639350
  71.6781278  32.4795528  40.2818406  71.1283500  34.1647586  39.8849132
  71.2926278  34.8260225  40.7319330  71.7006296  34.5416444  39.0357624
  70.0688002  34.1644574  39.6319510  69.5867086  34.6019598  43.0543111
  68.6783649  34.2244776  42.3087025  69.5417990  35.7962023  43.6410214
  70.3244578  36.0556991  44.2307647  68.4998353  36.8164722  43.4681907
  67.5805813  36.4313252  43.9054061  68.9210490  38.0847941  44.2354483
  69.7288305  38.5821553  43.6961165  67.7830006  39.0734291  44.4697436
  67.0062152  38.6102742  45.0785730  68.1663337  39.9543413  44.9859211
  67.3577169  39.3951622  43.5220004  69.3864534  37.7275361  45.5173001
  69.7597239  38.5165218  45.9203506  68.2917723  37.1383885  41.9754278
  69.2837743  37.2723253  41.2490349  67.0452982  37.3125985  41.4863697
  65.7986417  37.1799749  42.2317093  65.7995583  37.7613318  43.1515176
  65.6235144  36.1270244  42.4564617  64.7094046  37.6900199  41.2953799
  64.6674263  38.7789763  41.3360335  63.7389922  37.2520051  41.5241235
  65.2316184  37.2398792  39.9349448  64.7879185  37.8143565  39.1208188
  65.0171951  36.1778790  39.8096128  66.7482537  37.4477249  40.0509054
  67.2515072  36.6519399  39.5002469  67.1820782  38.7901582  39.4288400
  67.1506511  38.9362480  38.2019508  67.5742189  39.7588470  40.2612157
  67.5539263  39.5524384  41.2500351  68.0906196  41.0949897  39.9224691
  68.8021830  40.9865568  39.1044035  66.9457230  42.0236543  39.4513746
  66.4421934  41.5344907  38.6181885  65.8886131  42.3051550  40.5281317
  66.3202431  42.8774141  41.3488946  65.0663998  42.8748258  40.0953053
  65.4853257  41.3709211  40.9174093  67.4716216  43.3648796  38.9257028
  68.2278938  43.1935136  38.1598821  66.6489301  43.9266867  38.4828633
  67.8961585  43.9561952  39.7362823  68.8412918  41.6504460  41.1435570
  68.4848524  41.3294608  42.2753037  69.9110921  42.4253051  40.9424481
  70.1867260  42.6338228  39.9963157  70.6124192  43.1244630  42.0319691
  70.8787878  42.3923446  42.7985899  71.9060028  43.7585312  41.4887165
  71.6514313  44.6230724  40.8805137  72.5173476  44.1025745  42.3218820
  72.7330445  42.7948014  40.6573913  73.1463108  41.7528160  41.1389837
  72.9447502  43.1037633  39.3965160  73.4915483  42.4619856  38.8166639
  72.6231011  43.9875337  39.0241328  69.6975546  44.1835851  42.6788436
  69.0063369  44.8986420  41.9527603  69.7024623  44.3153762  44.0094163
  70.3294913  43.7238106  44.5487876  68.7077484  45.0897943  44.7763938
  68.1401345  45.7122769  44.0853412  67.6913464  44.1347913  45.4560506
  68.2311759  43.2745260  45.8578024  66.9428385  44.8076900  46.6218203
  66.5126716  45.7496203  46.2856568  66.1463901  44.1667044  46.9976964
  67.6203520  44.9957168  47.4556999  66.6867285  43.6431942  44.3870214
  66.0748494  44.4824245  44.0525947  67.2401241  43.2724239  43.5277070
  65.7612132  42.5093306  44.8396812  65.0237569  42.8789421  45.5518511
  65.2324352  42.1131059  43.9722503  66.3444571  41.7088429  45.2948806
  69.3736856  46.0494622  45.7736436  70.1534269  45.6439869  46.6411478
  69.0350892  47.3360831  45.6440514  68.3779146  47.5727853  44.9049997
  69.3684973  48.4003651  46.5921275  70.2602717  48.1242542  47.1481074
  69.6695863  49.7050072  45.8268484  68.7875815  49.9764964  45.2473624
  69.8317641  50.4976537  46.5549958  70.8798156  49.6530404  44.8742894
  70.6334002  49.0219300  44.0229161  71.1916197  51.0607237  44.3600033
  71.4296229  51.7193245  45.1958495  72.0354653  51.0295490  43.6748873
  70.3287935  51.4530507  43.8269860  72.1585846  49.1161143  45.5243728
  72.0278503  48.0670209  45.7887348  72.9872727  49.1841747  44.8209839
  72.3915631  49.6911708  46.4209350  68.2383790  48.5767275  47.6206459
  67.2469517  49.2571921  47.3525409  68.3927261  47.9265505  48.7794935
  69.2235834  47.3712612  48.9038051  67.4638774  48.0002410  49.9117719
  66.4454647  48.0024636  49.5249446  67.5936579  47.1193197  50.5411553
  67.6164683  49.2482912  50.7889611  68.5071294  50.0812756  50.5914671
  66.7254261  49.3834710  51.7788582  66.0343335  48.6441220  51.8867666
  66.5812907  50.5785532  52.6315558  66.4442069  51.4327266  51.9813297
  65.3184584  50.4481123  53.4934007  65.1642854  49.4011707  53.7544567
  65.4471853  51.0128577  54.4138091  64.0921940  51.0313253  52.7669582
  64.1605147  52.1190410  52.8197092  64.1243763  50.7474233  51.7131502
  62.7250874  50.6034459  53.3229964  62.0305687  51.4368416  53.2154851
  62.3609295  49.7965717  52.6900026  62.7616399  50.1606922  54.7331294
  62.9331588  50.8650854  55.4477293  62.6978533  48.9009517  55.1301383
  62.4039498  47.9130512  54.3400927  62.3026220  48.0561279  53.3498197
  62.5302016  46.9655951  54.6878944  62.9576965  48.5461863  56.3463411
  63.4318148  49.1910027  56.9673334  63.0186624  47.5458870  56.5110441
  67.8084801  50.9406269  53.4659070  68.0040616  52.1303494  53.7207529
  68.6442602  49.9745189  53.8446922  68.3976487  49.0131989  53.6251536
  69.9501016  50.2217944  54.4706962  69.7665685  50.6808166  55.4407323
  70.7074336  48.9066694  54.7431156  71.6338356  49.1585518  55.2603215
  70.1051038  48.3123272  55.4303584  71.0588300  48.0201778  53.5362248
  70.6470804  48.3060874  52.3943843  71.7702499  47.0082782  53.7456094
  70.8142448  51.2239750  53.6792362  71.3597182  52.1672473  54.2599318
  70.9222489  51.0676355  52.3577298  70.5254847  50.2156747  51.9589992
  71.6090327  52.0207830  51.4829543  72.4054286  52.4996250  52.0541590
  72.2841820  51.2483215  50.3393750  73.0663098  51.8716916  49.9066499
  72.7467790  50.3437608  50.7378220  71.1173052  50.8039450  49.0228381
  70.2469891  50.1207999  49.7826738  70.6868201  53.1530214  50.9897074
  71.1446029  54.2855844  50.8285453  69.3801822  52.8980865  50.8319545
  69.0735727  51.9353441  50.9430311  68.4082529  53.8818551  50.3366736
  68.7907893  54.2570822  49.3882403  67.0510317  53.1880011  50.0936604
  67.2024664  52.1193988  49.9537689  66.4314591  53.3311270  50.9790878
  66.2729999  53.6873772  48.8673519  66.2034914  54.7739653  48.9051801
  66.9355707  53.2528819  47.5554945  67.0435176  52.1657407  47.5355811
  66.3217410  53.5566230  46.7088215  67.9196154  53.7055005  47.4549548
  64.8582123  53.1025026  48.8828128  64.3497213  53.3720191  49.8067077
  64.2858079  53.4873528  48.0390464  64.9035891  52.0130829  48.8103240
  68.2744531  55.0943443  51.2750616  68.2087181  56.2304612  50.7999156
  68.3149737  54.8772194  52.5976042  68.3340074  53.9194615  52.9386573
  68.3700232  55.9764852  53.5705960  67.6117063  56.7031692  53.2705090
  67.9609328  55.4992465  54.9748882  67.5416856  56.3790515  55.4638802
  67.1505587  54.7775554  54.8741540  69.0357061  54.8993898  55.9098416
  69.0746910  53.8181909  55.7762337  70.0193303  55.3049258  55.6839093
  68.7419316  55.2387514  57.3714968  68.4052507  54.4078352  58.2026706
  68.7995442  56.4854791  57.7602726  68.2786681  56.7308638  58.5980317
  69.0104951  57.2199570  57.0999087  69.7141809  56.7223580  53.5453085
  69.7554126  57.9311555  53.7623232  70.8036767  56.0305446  53.1908097
  70.6920792  55.0464328  52.9886148  72.1183245  56.6257429  52.9316742
  72.4638716  57.1285011  53.8354652  72.8250056  55.8336040  52.6852744
  72.1115016  57.6414649  51.7812865  72.9085317  58.5821489  51.7926307
  71.2062138  57.4703916  50.8105131  70.6436603  56.6281466  50.8473380
  70.9249528  58.4278076  49.7314631  71.8471383  58.9511506  49.4752620
  70.4410034  57.6673084  48.4769779  69.4829889  57.2004221  48.7063779
  70.2682787  58.3931086  47.6808385  71.3920208  56.5806145  47.9365315
  71.5650515  55.8276471  48.7019994  70.7456749  55.8932692  46.7318495
  70.5762653  56.6137298  45.9315606  71.3979209  55.0975622  46.3712266
  69.7952631  55.4511026  47.0299535  72.7389737  57.1522205  47.4901881
  73.2710385  57.5725452  48.3435515  73.3555472  56.3590664  47.0677475
  72.5867195  57.9291061  46.7424595  69.9038730  59.5181861  50.1284805
  69.6499109  60.4247042  49.3371541  69.2935429  59.4444588  51.3183892
  69.5689472  58.7005207  51.9494890  68.2887224  60.3997323  51.8122961
  68.0444016  60.1458738  52.8442384  68.7201721  61.4008977  51.8013135
  66.9746569  60.4401695  51.0150036  66.2461325  61.4355656  51.0932807
  66.6896331  59.3821048  50.2478738  67.3201046  58.5944214  50.3162939
  65.5630504  59.2527554  49.3138020  65.6696897  60.0450047  48.5765833
  65.6809506  57.8758972  48.6089961  66.6058881  57.3876133  48.9204148
  64.8662475  57.2344142  48.9481440  65.6748478  57.8974455  47.0656510
  64.7024794  58.2418558  46.7146925  66.7609318  58.7803781  46.4506840
  67.7034563  58.6514027  46.9839758  66.9049638  58.5287570  45.4013474
  66.4442151  59.8147794  46.4940208  65.9281108  56.4871900  46.5323109
  65.2093366  55.7908949  46.9587644  65.8241391  56.4734343  45.4472362
  66.9354156  56.1635681  46.7974720  64.1863527  59.4520777  49.9875739
  64.0013444  59.1645644  51.1707393  63.1923465  59.9022375  49.2130316
  63.4375031  60.1857812  48.2684851  61.8008302  60.1300187  49.6355403
  61.5861006  59.4124936  50.4259209  61.6241849  61.5558632  50.2178592
  60.6395653  61.6096432  50.6848568  62.3688525  61.7099738  51.0003120
  61.7306247  62.7093200  49.1966334  62.7158121  62.6915930  48.7357698
  60.9735215  62.5766358  48.4240090  61.5160550  64.0907106  49.8384925
  60.5709702  64.0783427  50.3848498  62.3143693  64.2893869  50.5557640
  61.4534268  65.1718800  48.8299839  60.5365069  65.5236610  48.5726160
  62.4490632  65.8454329  48.2773052  63.6940676  65.6458019  48.5987294
  63.9182589  65.0276545  49.3475050  64.3910140  66.3055091  48.2451600
  62.1876792  66.7505526  47.3837545  61.2220244  67.0214715  47.2289248
  62.9381133  67.2753236  46.9305973  60.8050297  59.8584116  48.5029946
  61.0755398  60.1776528  47.3448900  59.6505210  59.2851678  48.8417526
  59.5205463  59.0626311  49.8226291  58.4564159  59.2857158  47.9850899
  58.7548055  59.1499577  46.9431359  57.5002184  58.1380694  48.3861584
  57.6005211  57.9211189  49.4509791  56.4756515  58.4729763  48.2169664
  57.6952249  56.8471217  47.5688606  57.5979913  57.0845763  46.5089266
  59.0525388  56.1975414  47.8079723  59.1364980  55.8668217  48.8409208
  59.1660054  55.3356992  47.1496411  59.8414347  56.9113459  47.5976123
  56.6334096  55.8127173  47.9357384  55.6362691  56.2267572  47.7945071
  56.7412136  54.9342748  47.2982085  56.7589150  55.5110200  48.9755065
  57.7546992  60.6473157  48.0943483  57.5963081  61.1709245  49.2018182
  57.3149669  61.1991499  46.9601147  57.5200925  60.7359805  46.0777741
  56.5646099  62.4649894  46.8881808  55.8868293  62.4970314  47.7374857
  57.5223261  63.6688066  47.0312584  58.1331499  63.5323130  47.9244582
  58.4420949  63.8545829  45.8284085  57.8547079  64.0975910  44.9450353
  59.1407538  64.6677642  46.0249898  58.9988354  62.9370631  45.6443473
  56.8059406  64.8737439  47.1639753  57.4411600  65.5827334  47.3361778
  55.6950518  62.5639150  45.6235207  55.8444533  61.7843801  44.6783757
  54.8011300  63.5527815  45.6060752  54.7669288  64.1224226  46.4435757
  53.9268566  63.9454940  44.4930401  54.5090026  63.9002042  43.5711849
  52.7520400  62.9504905  44.3395801  52.1197199  63.2668287  43.5101681
  53.1511875  61.9772996  44.0764771  51.8982939  62.7535838  45.5822014
  52.3404550  62.2173188  46.5877074  50.6457195  63.1417065  45.5490601
  50.0385668  62.8855695  46.3321104  50.2699236  63.5907037  44.7346941
  53.4746221  65.4182600  44.6351633  52.3627110  65.7737332  44.2377003
  54.3519415  66.2565981  45.2106772  55.2508865  65.8728241  45.4740110
  54.1966922  67.7022714  45.4586070  53.6802146  68.1488899  44.6084336
  53.2924117  67.8999685  46.7049444  53.2704661  68.9612116  46.9571366
  52.2766359  67.6335695  46.4069892  53.6245031  67.0909240  47.9757340
  53.6694219  66.0261053  47.7458180  54.9428883  67.5091628  48.6170470
  54.9617204  68.5884628  48.7439590  55.0745432  67.0114037  49.5765164
  55.7659286  67.2242949  47.9662061  52.5007390  67.2979685  48.9879327
  51.5840429  66.8684854  48.5852663  52.7335431  66.7923374  49.9249512
  52.3306827  68.3590718  49.1583255  55.5661533  68.4186399  45.5076889
  56.4628864  67.9367587  44.7760555  55.7389723  69.4279170  46.2269113
  57.1673300  38.6952686  55.9910480  57.0583143  39.6916950  55.8639435
  56.3640836  38.2959619  56.4741230  58.3737089  38.2115601  56.2456474
  58.4796211  37.0612802  56.8933603  59.3247741  36.7548850  57.3743231
  57.7785945  36.3286881  56.7841971  59.4604482  38.8680178  55.8346536
  60.2170609  38.9859755  56.4978981  59.8798302  38.9883438  54.4206447
  59.1940750  38.4162386  53.7796211  60.8739902  38.5423980  54.2867825
  59.9004618  40.4556822  53.9143021  60.0745896  40.4556817  52.8294053
  58.9045026  40.8948508  54.0561479  60.9558196  41.3604303  54.6128982
  60.7688990  42.4104074  54.3486502  60.7928948  41.2943879  55.6943695
  62.4425470  41.0236883  54.2842630  63.2781099  41.3396756  55.4825386
  63.3900903  42.3698224  55.5351147  64.2378036  41.0388644  55.2735720
  62.5227452  39.9445462  54.1007975  62.9174769  41.7265724  52.9591320
  63.5971838  42.7399702  52.9907547  62.5360580  41.1321701  51.7667709
  61.9800704  40.2806736  51.8061418  62.7129114  41.7064678  50.3997619
  64.0589584  41.2279413  49.7478786  64.2394340  41.7459580  48.2995137
  64.2831522  42.8379068  48.2685036  63.4127925  41.4319971  47.6552859
  65.1667686  41.3600171  47.8580146  65.3066559  41.6211787  50.5830044
  65.3056845  41.1220585  51.5589908  65.3439567  42.7038318  50.7522868
  66.2312561  41.3313879  50.0677396  64.0259840  40.1313189  49.6962497
  62.6987369  42.7995676  50.4548577  61.4866363  41.2935585  49.5276028
  60.9080264  40.2345899  49.7148709  61.0362979  42.1954203  48.5791255
  61.6119128  43.0020947  48.3462357  59.7886131  42.0021486  47.8117063
  58.5495311  42.5374964  48.6023987  57.9795970  41.5750485  49.6932715
  56.9023595  42.2896397  50.5397574  56.0863525  42.6600496  49.9071984
  57.3418715  43.1408645  51.0727470  56.4751252  41.6111205  51.2887476
  57.3984455  40.2705677  49.0833190  58.1799026  39.6746796  48.5973180
  56.6220576  40.4940664  48.3401984  56.9497452  39.6434978  49.8638143
  58.7848628  41.3028553  50.3841646  57.7402036  42.7721473  47.8998730
  58.8193503  43.4970741  49.0623777  59.6692426  40.9281063  47.6236818
  59.8308018  42.6741796  46.4064472  58.9071337  42.3964665  45.8827033
  59.8242222  43.7676317  46.5175842  61.0018536  42.2676505  45.6018787
  61.7622654  42.9254253  45.8785488  60.7638600  42.3044067  44.1254563
  62.1153721  42.2465510  43.3712862  61.9305443  41.9831412  41.8771236
  62.2617451  40.7242678  41.3436536  61.9735174  40.4225779  40.0026872
  61.3341851  41.3742900  39.1920989  61.0010372  42.6323645  39.7190073
  61.3082771  42.9383805  41.0530443  61.0159736  43.9025734  41.4564360
  60.4699746  43.3615805  39.1109764  61.0746436  41.1292693  38.1664053
  62.2145613  39.4420612  39.6016556  62.7032253  39.9674163  41.9850368
  62.7243040  41.4502347  43.8099738  62.6657696  43.1796720  43.5421212
  60.3049088  43.2705738  43.8803699  59.7862048  41.2066862  43.5541000
  59.8099447  40.0309295  43.8902786  58.8817625  41.6536270  42.6027352
  58.9775163  42.6147300  42.2971805  57.7866026  40.8604074  41.9915146
  56.5069454  41.0915409  42.8473968  55.2195941  40.3498789  42.3777361
  53.9676075  41.1977151  42.5742687  53.1158490  40.9542014  43.3987772
  53.7297908  42.0647783  41.5904848  52.8747822  42.4570534  41.8873503
  55.0979178  39.4249774  42.9515499  55.2560910  40.0706606  41.3222041
  56.3057903  42.1708071  42.8716499  56.7122472  40.8117298  43.8894919
  58.0559311  39.7975748  41.9817351  57.5442326  41.3180906  40.5210071
  57.5874104  42.4881317  40.1855952  57.1765947  40.3591190  39.5995995
  57.2300255  39.3752128  39.8745845  56.5856856  40.7155870  38.2866128
  57.7181780  41.0452914  37.2776813  58.3369282  40.1600975  37.0810647
  58.3698585  41.8352750  37.6726335  57.3149053  41.4053418  36.3226793
  55.9707923  41.6156419  38.4184182  55.6278903  39.6285259  37.7229677
  55.4847282  38.5223526  38.2212750  55.0002182  39.9825339  36.5428222
  55.1270193  40.9369446  36.2330266  54.2337461  39.0621811  35.6564673
  55.1110035  37.9435592  34.9972281  54.7415764  37.2208114  34.0857820
  56.4054471  37.8356913  35.4066942  56.9830087  37.0817079  35.0514615
  56.7015889  38.3690975  36.2073324  53.4830564  38.5533238  36.2769754
  53.5023751  39.8971907  34.5631110  54.2316619  40.1906650  33.7969482
  53.1316471  40.8341204  35.0006293  52.2923252  39.1610032  33.9151039
  51.3674405  39.5002814  34.4008419  52.3469717  38.0820329  34.0999691
  52.1941486  39.4123069  32.3901950  53.1324899  39.1127327  31.9061486
  52.0597884  40.4857179  32.2039239  51.0309872  38.6309914  31.7422640
  50.0810975  38.8586696  32.2396051  51.1980305  37.5499660  31.8107175
  50.9361447  38.8918147  30.6806184
