Cpptraj Generated Restart                                                       
  129  0.0000000E+00
  57.1673300  38.6952686  55.9910480  57.0583143  39.6916950  55.8639435
  56.3640836  38.2959619  56.4741230  58.3737089  38.2115601  56.2456474
  58.4796211  37.0612802  56.8933603  59.3247741  36.7548850  57.3743231
  57.7785945  36.3286881  56.7841971  59.4604482  38.8680178  55.8346536
  60.2170609  38.9859755  56.4978981  59.8798302  38.9883438  54.4206447
  59.1940750  38.4162386  53.7796211  60.8739902  38.5423980  54.2867825
  59.9004618  40.4556822  53.9143021  60.0745896  40.4556817  52.8294053
  58.9045026  40.8948508  54.0561479  60.9558196  41.3604303  54.6128982
  60.7688990  42.4104074  54.3486502  60.7928948  41.2943879  55.6943695
  62.4425470  41.0236883  54.2842630  63.2781099  41.3396756  55.4825386
  63.3900903  42.3698224  55.5351147  64.2378036  41.0388644  55.2735720
  62.5227452  39.9445462  54.1007975  62.9174769  41.7265724  52.9591320
  63.5971838  42.7399702  52.9907547  62.5360580  41.1321701  51.7667709
  61.9800704  40.2806736  51.8061418  62.7129114  41.7064678  50.3997619
  64.0589584  41.2279413  49.7478786  64.2394340  41.7459580  48.2995137
  64.2831522  42.8379068  48.2685036  63.4127925  41.4319971  47.6552859
  65.1667686  41.3600171  47.8580146  65.3066559  41.6211787  50.5830044
  65.3056845  41.1220585  51.5589908  65.3439567  42.7038318  50.7522868
  66.2312561  41.3313879  50.0677396  64.0259840  40.1313189  49.6962497
  62.6987369  42.7995676  50.4548577  61.4866363  41.2935585  49.5276028
  60.9080264  40.2345899  49.7148709  61.0362979  42.1954203  48.5791255
  61.6119128  43.0020947  48.3462357  59.7886131  42.0021486  47.8117063
  58.5495311  42.5374964  48.6023987  57.9795970  41.5750485  49.6932715
  56.9023595  42.2896397  50.5397574  56.0863525  42.6600496  49.9071984
  57.3418715  43.1408645  51.0727470  56.4751252  41.6111205  51.2887476
  57.3984455  40.2705677  49.0833190  58.1799026  39.6746796  48.5973180
  56.6220576  40.4940664  48.3401984  56.9497452  39.6434978  49.8638143
  58.7848628  41.3028553  50.3841646  57.7402036  42.7721473  47.8998730
  58.8193503  43.4970741  49.0623777  59.6692426  40.9281063  47.6236818
  59.8308018  42.6741796  46.4064472  58.9071337  42.3964665  45.8827033
  59.8242222  43.7676317  46.5175842  61.0018536  42.2676505  45.6018787
  61.7622654  42.9254253  45.8785488  60.7638600  42.3044067  44.1254563
  62.1153721  42.2465510  43.3712862  61.9305443  41.9831412  41.8771236
  62.2617451  40.7242678  41.3436536  61.9735174  40.4225779  40.0026872
  61.3341851  41.3742900  39.1920989  61.0010372  42.6323645  39.7190073
  61.3082771  42.9383805  41.0530443  61.0159736  43.9025734  41.4564360
  60.4699746  43.3615805  39.1109764  61.0746436  41.1292693  38.1664053
  62.2145613  39.4420612  39.6016556  62.7032253  39.9674163  41.9850368
  62.7243040  41.4502347  43.8099738  62.6657696  43.1796720  43.5421212
  60.3049088  43.2705738  43.8803699  59.7862048  41.2066862  43.5541000
  59.8099447  40.0309295  43.8902786  58.8817625  41.6536270  42.6027352
  58.9775163  42.6147300  42.2971805  57.7866026  40.8604074  41.9915146
  56.5069454  41.0915409  42.8473968  55.2195941  40.3498789  42.3777361
  53.9676075  41.1977151  42.5742687  53.1158490  40.9542014  43.3987772
  53.7297908  42.0647783  41.5904848  52.8747822  42.4570534  41.8873503
  55.0979178  39.4249774  42.9515499  55.2560910  40.0706606  41.3222041
  56.3057903  42.1708071  42.8716499  56.7122472  40.8117298  43.8894919
  58.0559311  39.7975748  41.9817351  57.5442326  41.3180906  40.5210071
  57.5874104  42.4881317  40.1855952  57.1765947  40.3591190  39.5995995
  57.2300255  39.3752128  39.8745845  56.5856856  40.7155870  38.2866128
  57.7181780  41.0452914  37.2776813  58.3369282  40.1600975  37.0810647
  58.3698585  41.8352750  37.6726335  57.3149053  41.4053418  36.3226793
  55.9707923  41.6156419  38.4184182  55.6278903  39.6285259  37.7229677
  55.4847282  38.5223526  38.2212750  55.0002182  39.9825339  36.5428222
  55.1270193  40.9369446  36.2330266  54.2337461  39.0621811  35.6564673
  55.1110035  37.9435592  34.9972281  54.7415764  37.2208114  34.0857820
  56.4054471  37.8356913  35.4066942  56.9830087  37.0817079  35.0514615
  56.7015889  38.3690975  36.2073324  53.4830564  38.5533238  36.2769754
  53.5023751  39.8971907  34.5631110  54.2316619  40.1906650  33.7969482
  53.1316471  40.8341204  35.0006293  52.2923252  39.1610032  33.9151039
  51.3674405  39.5002814  34.4008419  52.3469717  38.0820329  34.0999691
  52.1941486  39.4123069  32.3901950  53.1324899  39.1127327  31.9061486
  52.0597884  40.4857179  32.2039239  51.0309872  38.6309914  31.7422640
  50.0810975  38.8586696  32.2396051  51.1980305  37.5499660  31.8107175
  50.9361447  38.8918147  30.6806184
