%VERSION  VERSION_STAMP = V0001.000  DATE = 03/05/26  15:29:09
%FLAG TITLE
%FORMAT(20a4)

%FLAG POINTERS
%FORMAT(10I8)
     129      28      70      59     155      77     277     159       0       0
     697       1      59      77     159      24      48      75       0       0
       0       0       0       0       0       0       0       0     129       0
       0
%FLAG ATOM_NAME
%FORMAT(20a4)
N3  H61 H62 C6  N4  H63 H64 N2  H60 C5  H16 H26 C4  H30 H39 C3  H28 H35 C1  N1  
H58 H59 H23 C2  O1  N5  H65 C7  C9  C10 H20 H21 H51 C11 H4  H24 H48 H45 H3  C8  
O2  N6  H66 C12 C14 C15 C16 H1  H34 H47 C17 H14 H15 H43 H56 H2  H7  H27 C13 H5  
H40 N7  H67 C18 C20 C21 C22 C24 C26 C25 C23 H42 H10 H19 H9  H36 H8  H33 H38 C19 
O3  N8  H68 C27 C29 C30 C31 O5  O6  H11 H44 H50 H25 H41 H46 C28 O4  N9  H69 C32 
C34 H12 H52 H57 H6  C33 O7  N10 H70 C35 C36 O8  N11 H17 H53 H49 C37 H29 H54 C38 
H31 H37 C39 H13 H32 C40 H18 H22 H55 
%FLAG CHARGE
%FORMAT(5E16.8)
 -8.63190351E+00  5.95322541E+00  5.95322541E+00  8.91617139E+00 -8.63190351E+00
  5.95322541E+00  5.95322541E+00 -7.27251993E+00  5.66166861E+00  2.42356590E-01
  1.48876191E+00  1.48876191E+00 -2.26685412E+00  1.21542741E+00  1.21542741E+00
 -1.55618442E+00  1.45231731E+00  1.45231731E+00  2.25045405E+00 -1.63599809E+01
  6.83882919E+00  6.83882919E+00  1.06964901E+00  1.08987576E+01 -1.06983123E+01
 -9.91110897E+00  5.58513495E+00  6.86980710E-01 -1.21542741E+00 -1.78760763E+00
  8.50981410E-01  8.50981410E-01  8.50981410E-01 -1.78760763E+00  8.50981410E-01
  8.50981410E-01  8.50981410E-01  1.06964901E+00  1.96254171E+00  1.18645395E+01
 -1.30307667E+01 -9.85644207E+00  5.96780325E+00  1.72565181E+00 -1.66551822E+00
 -1.28831661E+00 -1.68738498E+00  7.08246134E-01  7.08246134E-01  7.08246134E-01
 -1.68738498E+00  7.08246134E-01  7.08246134E-01  7.08246134E-01  9.60315210E-01
  1.05142671E+00  1.05142671E+00  1.47053961E+00  2.69325594E+00  8.41870260E-01
  8.41870260E-01 -1.52192650E+01  6.88438494E+00  2.08645335E+00 -1.11338253E+00
 -1.88236359E+00 -2.26867635E+00 -2.35978785E+00 -2.20489830E+00 -2.35978785E+00
 -2.26867635E+00  2.53289970E+00  2.56023315E+00  2.55112200E+00  2.56023315E+00
  2.53289970E+00  1.17898281E+00  1.17898281E+00  1.52520651E+00  1.21014294E+01
 -1.10809806E+01 -1.02573327E+01  5.94958095E+00  5.41202310E-01 -1.30107222E+00
 -2.55841092E+00  1.21925409E+01 -1.17351612E+01 -1.04249778E+01  8.27292420E+00
  1.97165286E+00  1.97165286E+00  1.10609361E+00  1.10609361E+00  1.79854101E+00
  1.15183158E+01 -1.11720921E+01 -9.76533057E+00  6.29580465E+00  5.41202310E-01
 -1.96983063E+00  1.02713638E+00  1.02713638E+00  1.02713638E+00  1.79854101E+00
  1.16640942E+01 -1.09169799E+01 -1.02573327E+01  5.69446875E+00  5.41202310E-01
  1.15183158E+01 -1.06983123E+01 -1.21360518E+01  5.60335725E+00  5.60335725E+00
  2.30876541E+00 -1.68374052E+00  8.69203710E-01  8.69203710E-01 -1.57440672E+00
  9.87648660E-01  9.87648660E-01 -1.41040602E+00  6.86980710E-01  6.86980710E-01
 -1.71471843E+00  6.80912684E-01  6.80912684E-01  6.80912684E-01
%FLAG ATOMIC_NUMBER
%FORMAT(10I8)
       7       1       1       6       7       1       1       7       1       6
       1       1       6       1       1       6       1       1       6       7
       1       1       1       6       8       7       1       6       6       6
       1       1       1       6       1       1       1       1       1       6
       8       7       1       6       6       6       6       1       1       1
       6       1       1       1       1       1       1       1       6       1
       1       7       1       6       6       6       6       6       6       6
       6       1       1       1       1       1       1       1       1       6
       8       7       1       6       6       6       6       8       8       1
       1       1       1       1       1       6       8       7       1       6
       6       1       1       1       1       6       8       7       1       6
       6       8       7       1       1       1       6       1       1       6
       1       1       6       1       1       6       1       1       1
%FLAG MASS
%FORMAT(5E16.8)
  9.97800000E+00  3.02400000E+00  3.02400000E+00  1.20100000E+01  9.97800000E+00
  3.02400000E+00  3.02400000E+00  1.19940000E+01  3.02400000E+00  7.97800000E+00
  3.02400000E+00  3.02400000E+00  7.97800000E+00  3.02400000E+00  3.02400000E+00
  7.97800000E+00  3.02400000E+00  3.02400000E+00  9.99400000E+00  9.97800000E+00
  3.02400000E+00  3.02400000E+00  3.02400000E+00  1.20100000E+01  1.60000000E+01
  1.19940000E+01  3.02400000E+00  9.99400000E+00  9.99400000E+00  5.96200000E+00
  3.02400000E+00  3.02400000E+00  3.02400000E+00  5.96200000E+00  3.02400000E+00
  3.02400000E+00  3.02400000E+00  3.02400000E+00  3.02400000E+00  1.20100000E+01
  1.60000000E+01  1.19940000E+01  3.02400000E+00  9.99400000E+00  7.97800000E+00
  9.99400000E+00  5.96200000E+00  3.02400000E+00  3.02400000E+00  3.02400000E+00
  5.96200000E+00  3.02400000E+00  3.02400000E+00  3.02400000E+00  3.02400000E+00
  3.02400000E+00  3.02400000E+00  3.02400000E+00  7.97800000E+00  3.02400000E+00
  3.02400000E+00  1.19940000E+01  3.02400000E+00  9.99400000E+00  7.97800000E+00
  1.20100000E+01  9.99400000E+00  9.99400000E+00  9.99400000E+00  9.99400000E+00
  9.99400000E+00  3.02400000E+00  3.02400000E+00  3.02400000E+00  3.02400000E+00
  3.02400000E+00  3.02400000E+00  3.02400000E+00  3.02400000E+00  1.20100000E+01
  1.60000000E+01  1.19940000E+01  3.02400000E+00  9.99400000E+00  7.97800000E+00
  7.97800000E+00  1.20100000E+01  1.60000000E+01  1.39840000E+01  3.02400000E+00
  3.02400000E+00  3.02400000E+00  3.02400000E+00  3.02400000E+00  3.02400000E+00
  1.20100000E+01  1.60000000E+01  1.19940000E+01  3.02400000E+00  9.99400000E+00
  5.96200000E+00  3.02400000E+00  3.02400000E+00  3.02400000E+00  3.02400000E+00
  1.20100000E+01  1.60000000E+01  1.19940000E+01  3.02400000E+00  9.99400000E+00
  1.20100000E+01  1.60000000E+01  9.97800000E+00  3.02400000E+00  3.02400000E+00
  3.02400000E+00  7.97800000E+00  3.02400000E+00  3.02400000E+00  7.97800000E+00
  3.02400000E+00  3.02400000E+00  7.97800000E+00  3.02400000E+00  3.02400000E+00
  5.96200000E+00  3.02400000E+00  3.02400000E+00  3.02400000E+00
%FLAG ATOM_TYPE_INDEX
%FORMAT(10I8)
      20      14      14      19      20      14      14      20      14      18
      11      11      18      13      13      18      13      13      18      20
      14      14      11      19      24      20      14      18      18      18
      13      13      13      18      13      13      13      13      11      19
      24      20      14      18      18      18      18      13      13      13
      18      13      13      13      13      13      13      11      18      11
      11      20      14      18      18      19      19      19      19      19
      19      12      12      12      12      12      13      13      11      19
      24      20      14      18      18      18      19      24      25      15
      13      13      13      13      11      19      24      20      14      18
      18      13      13      13      11      19      24      20      14      18
      19      24      20      14      14      11      18      13      13      18
      13      13      18      13      13      18      13      13      13
%FLAG NUMBER_EXCLUDED_ATOMS
%FORMAT(10I8)
       9       4       3       9       5       2       1       8       4       9
       5       4       9       5       4      10       5       4       9       6
       3       2       3       7       3      10       4      16      13      10
       4       3       2       6       3       2       1       2       3       7
       3      11       4      14      17      13      10       4       3       2
       6       3       2       1       2       3       2       4       8       4
       3      10       4      12      13      13      10       7       7       5
       6       1       1       1       1       1       3       2       3       7
       3      10       4      13      12      10       7       4       3       1
       3       2       3       2       3       7       3      10       4      10
       7       4       3       2       3       7       3      10       4      13
       9       5       4       1       1       4       9       5       4       9
       5       4       6       5       4       3       2       1       1
%FLAG NONBONDED_PARM_INDEX
%FORMAT(10I8)
       1       2       4       7      11      16      22      29      37      46
      56      67      79      92     106     121     137     154     172     191
     211     232     254     277     301     326     352     379       2       3
       5       8      12      17      23      30      38      47      57      68
      80      93     107     122     138     155     173     192     212     233
     255     278     302     327     353     380       4       5       6       9
      13      18      24      31      39      48      58      69      81      94
     108     123     139     156     174     193     213     234     256     279
     303     328     354     381       7       8       9      10      14      19
      25      32      40      49      59      70      82      95     109     124
     140     157     175     194     214     235     257     280     304     329
     355     382      11      12      13      14      15      20      26      33
      41      50      60      71      83      96     110     125     141     158
     176     195     215     236     258     281     305     330     356     383
      16      17      18      19      20      21      27      34      42      51
      61      72      84      97     111     126     142     159     177     196
     216     237     259     282     306     331     357     384      22      23
      24      25      26      27      28      35      43      52      62      73
      85      98     112     127     143     160     178     197     217     238
     260     283     307     332     358     385      29      30      31      32
      33      34      35      36      44      53      63      74      86      99
     113     128     144     161     179     198     218     239     261     284
     308     333     359     386      37      38      39      40      41      42
      43      44      45      54      64      75      87     100     114     129
     145     162     180     199     219     240     262     285     309     334
     360     387      46      47      48      49      50      51      52      53
      54      55      65      76      88     101     115     130     146     163
     181     200     220     241     263     286     310     335     361     388
      56      57      58      59      60      61      62      63      64      65
      66      77      89     102     116     131     147     164     182     201
     221     242     264     287     311     336     362     389      67      68
      69      70      71      72      73      74      75      76      77      78
      90     103     117     132     148     165     183     202     222     243
     265     288     312     337     363     390      79      80      81      82
      83      84      85      86      87      88      89      90      91     104
     118     133     149     166     184     203     223     244     266     289
     313     338     364     391      92      93      94      95      96      97
      98      99     100     101     102     103     104     105     119     134
     150     167     185     204     224     245     267     290     314     339
     365     392     106     107     108     109     110     111     112     113
     114     115     116     117     118     119     120     135     151     168
     186     205     225     246     268     291     315     340     366     393
     121     122     123     124     125     126     127     128     129     130
     131     132     133     134     135     136     152     169     187     206
     226     247     269     292     316     341     367     394     137     138
     139     140     141     142     143     144     145     146     147     148
     149     150     151     152     153     170     188     207     227     248
     270     293     317     342     368     395     154     155     156     157
     158     159     160     161     162     163     164     165     166     167
     168     169     170     171     189     208     228     249     271     294
     318     343     369     396     172     173     174     175     176     177
     178     179     180     181     182     183     184     185     186     187
     188     189     190     209     229     250     272     295     319     344
     370     397     191     192     193     194     195     196     197     198
     199     200     201     202     203     204     205     206     207     208
     209     210     230     251     273     296     320     345     371     398
     211     212     213     214     215     216     217     218     219     220
     221     222     223     224     225     226     227     228     229     230
     231     252     274     297     321     346     372     399     232     233
     234     235     236     237     238     239     240     241     242     243
     244     245     246     247     248     249     250     251     252     253
     275     298     322     347     373     400     254     255     256     257
     258     259     260     261     262     263     264     265     266     267
     268     269     270     271     272     273     274     275     276     299
     323     348     374     401     277     278     279     280     281     282
     283     284     285     286     287     288     289     290     291     292
     293     294     295     296     297     298     299     300     324     349
     375     402     301     302     303     304     305     306     307     308
     309     310     311     312     313     314     315     316     317     318
     319     320     321     322     323     324     325     350     376     403
     326     327     328     329     330     331     332     333     334     335
     336     337     338     339     340     341     342     343     344     345
     346     347     348     349     350     351     377     404     352     353
     354     355     356     357     358     359     360     361     362     363
     364     365     366     367     368     369     370     371     372     373
     374     375     376     377     378     405     379     380     381     382
     383     384     385     386     387     388     389     390     391     392
     393     394     395     396     397     398     399     400     401     402
     403     404     405     406
%FLAG RESIDUE_LABEL
%FORMAT(20a4)
5KV 
%FLAG RESIDUE_POINTER
%FORMAT(10I8)
       1
%FLAG BOND_FORCE_CONSTANT
%FORMAT(5E16.8)
  2.43200000E+02  4.27600000E+02  4.27600000E+02  6.52600000E+02  3.83100000E+02
  2.32500000E+02  2.50300000E+02  3.75900000E+02  3.75900000E+02  3.25900000E+02
  3.25900000E+02  3.28700000E+02  3.26600000E+02  3.78600000E+02  3.95700000E+02
  4.88000000E+02  4.88000000E+02  3.92400000E+02  3.92400000E+02  4.03200000E+02
  4.03200000E+02  4.04600000E+02  4.04600000E+02  5.63500000E+02
%FLAG BOND_EQUIL_VALUE
%FORMAT(5E16.8)
  1.52400000E+00  1.37900000E+00  1.37900000E+00  1.21800000E+00  1.35100000E+00
  1.53800000E+00  1.51600000E+00  1.09700000E+00  1.09700000E+00  1.46500000E+00
  1.46500000E+00  1.46200000E+00  1.46400000E+00  1.39800000E+00  1.08600000E+00
  1.33900000E+00  1.33900000E+00  1.01900000E+00  1.01900000E+00  1.01300000E+00
  1.01300000E+00  1.01200000E+00  1.01200000E+00  9.73000000E-01
%FLAG ANGLE_FORCE_CONSTANT
%FORMAT(5E16.8)
  6.53000000E+01  4.75000000E+01  4.74000000E+01  6.63000000E+01  6.63000000E+01
  6.70000000E+01  6.34000000E+01  4.83000000E+01  4.83000000E+01  5.16000000E+01
  6.68000000E+01  6.68000000E+01  8.46000000E+01  8.58000000E+01  6.49000000E+01
  6.52000000E+01  4.69000000E+01  4.68000000E+01  6.60000000E+01  6.60000000E+01
  6.59000000E+01  6.62000000E+01  6.56000000E+01  6.38000000E+01  4.74000000E+01
  4.74000000E+01  4.58000000E+01  6.29000000E+01  4.61000000E+01  4.73000000E+01
  6.88000000E+01  4.87000000E+01  4.88000000E+01  4.88000000E+01  3.88000000E+01
  4.95000000E+01  4.95000000E+01  4.98000000E+01  4.96000000E+01  3.90000000E+01
  4.14000000E+01  3.96000000E+01  4.01000000E+01  7.42000000E+01  7.42000000E+01
  7.30000000E+01  7.30000000E+01  1.15700000E+02
%FLAG ANGLE_EQUIL_VALUE
%FORMAT(5E16.8)
  1.93801443E+00  1.88879613E+00  1.89839544E+00  1.93975976E+00  1.93975976E+00
  1.90345690E+00  2.10643878E+00  2.05163542E+00  2.05163542E+00  1.85964912E+00
  2.01027109E+00  2.01027109E+00  2.15024656E+00  1.96751051E+00  1.94621748E+00
  1.95599133E+00  1.91218355E+00  1.91637234E+00  1.93801443E+00  1.93801443E+00
  1.94796281E+00  1.92789152E+00  2.10783504E+00  1.96087826E+00  1.90747116E+00
  1.90747116E+00  2.05390434E+00  2.18969102E+00  2.02440827E+00  1.92806605E+00
  2.09474507E+00  2.09230160E+00  2.11446730E+00  2.11446730E+00  1.89298492E+00
  1.91776860E+00  1.91776860E+00  1.90031530E+00  1.91619781E+00  1.87762601E+00
  1.85703112E+00  2.05861674E+00  2.00922390E+00  2.14762857E+00  2.14762857E+00
  2.09683946E+00  2.09683946E+00  2.13104793E+00
%FLAG DIHEDRAL_FORCE_CONSTANT
%FORMAT(5E16.8)
  1.00000000E-01  3.00000000E-01  3.00000000E-01  3.00000000E-01  8.50000000E-01
  8.00000000E-01  0.00000000E+00  0.00000000E+00  1.50000000E+00  2.50000000E+00
  2.50000000E+00  1.30000000E-01  2.90000000E-01  1.10000000E-01  2.45000000E-01
  3.00000000E-01  3.00000000E-01  5.00000000E-01  1.50000000E-01  0.00000000E+00
  5.30000000E-01  0.00000000E+00  0.00000000E+00  0.00000000E+00  3.00000000E-01
  4.80000000E-01  1.00000000E-01  8.00000000E-01  8.00000000E-02  3.00000000E-01
  3.00000000E-01  3.00000000E-01  0.00000000E+00  0.00000000E+00  0.00000000E+00
  0.00000000E+00  8.00000000E-02  1.20000000E-01  0.00000000E+00  1.78000000E+00
  2.30000000E+00  1.90000000E+00  1.00000000E-01  7.00000000E-02  1.70000000E+00
  2.00000000E+00  1.00000000E-01  7.00000000E-02  1.70000000E+00  2.00000000E+00
  6.75000000E-01  6.75000000E-01  6.75000000E-01  6.75000000E-01  2.70000000E-01
  5.50000000E-01  7.40000000E-01  8.30000000E-01  4.00000000E-02  2.50000000E+00
  2.50000000E+00  2.00000000E+00  2.50000000E+00  2.00000000E+00  0.00000000E+00
  1.55555556E-01  3.62500000E+00  1.10000000E+00  1.10000000E+00  1.05000000E+01
  1.05000000E+01  1.10000000E+00  1.10000000E+00  1.10000000E+00  1.10000000E+00
%FLAG DIHEDRAL_PERIODICITY
%FORMAT(5E16.8)
  3.00000000E+00  3.00000000E+00  3.00000000E+00  3.00000000E+00  2.00000000E+00
  1.00000000E+00  2.00000000E+00  2.00000000E+00  1.00000000E+00  2.00000000E+00
  2.00000000E+00  3.00000000E+00  2.00000000E+00  1.00000000E+00  2.00000000E+00
  3.00000000E+00  3.00000000E+00  4.00000000E+00  3.00000000E+00  2.00000000E+00
  1.00000000E+00  2.00000000E+00  2.00000000E+00  2.00000000E+00  3.00000000E+00
  2.00000000E+00  3.00000000E+00  1.00000000E+00  3.00000000E+00  3.00000000E+00
  3.00000000E+00  3.00000000E+00  2.00000000E+00  2.00000000E+00  2.00000000E+00
  2.00000000E+00  3.00000000E+00  3.00000000E+00  2.00000000E+00  2.00000000E+00
  2.00000000E+00  1.00000000E+00  4.00000000E+00  2.00000000E+00  1.00000000E+00
  2.00000000E+00  4.00000000E+00  2.00000000E+00  1.00000000E+00  2.00000000E+00
  2.00000000E+00  2.00000000E+00  2.00000000E+00  2.00000000E+00  2.00000000E+00
  3.00000000E+00  1.00000000E+00  1.00000000E+00  3.00000000E+00  2.00000000E+00
  2.00000000E+00  1.00000000E+00  2.00000000E+00  1.00000000E+00  2.00000000E+00
  3.00000000E+00  2.00000000E+00  2.00000000E+00  2.00000000E+00  2.00000000E+00
  2.00000000E+00  2.00000000E+00  2.00000000E+00  2.00000000E+00  2.00000000E+00
%FLAG DIHEDRAL_PHASE
%FORMAT(5E16.8)
  0.00000000E+00  0.00000000E+00  0.00000000E+00  0.00000000E+00  3.14159400E+00
  0.00000000E+00  0.00000000E+00  0.00000000E+00  3.14159400E+00  3.14159400E+00
  3.14159400E+00  0.00000000E+00  3.14159400E+00  0.00000000E+00  3.14159400E+00
  0.00000000E+00  0.00000000E+00  3.14159400E+00  3.14159400E+00  0.00000000E+00
  0.00000000E+00  0.00000000E+00  0.00000000E+00  0.00000000E+00  0.00000000E+00
  3.14159400E+00  0.00000000E+00  0.00000000E+00  3.14159400E+00  0.00000000E+00
  0.00000000E+00  0.00000000E+00  0.00000000E+00  0.00000000E+00  0.00000000E+00
  0.00000000E+00  0.00000000E+00  0.00000000E+00  3.14159400E+00  3.14159400E+00
  3.14159400E+00  0.00000000E+00  0.00000000E+00  0.00000000E+00  3.14159400E+00
  3.14159400E+00  0.00000000E+00  0.00000000E+00  3.14159400E+00  3.14159400E+00
  3.14159400E+00  3.14159400E+00  3.14159400E+00  3.14159400E+00  3.14159400E+00
  3.14159400E+00  0.00000000E+00  0.00000000E+00  3.14159400E+00  3.14159400E+00
  3.14159400E+00  0.00000000E+00  3.14159400E+00  0.00000000E+00  3.14159400E+00
  0.00000000E+00  3.14159400E+00  3.14159400E+00  3.14159400E+00  3.14159400E+00
  3.14159400E+00  3.14159400E+00  3.14159400E+00  3.14159400E+00  3.14159400E+00
%FLAG SCEE_SCALE_FACTOR
%FORMAT(5E16.8)
  1.20000000E+00  1.20000000E+00  1.20000000E+00  1.20000000E+00  1.20000000E+00
  1.20000000E+00  1.20000000E+00  1.20000000E+00  1.20000000E+00  1.20000000E+00
  1.20000000E+00  1.20000000E+00  1.20000000E+00  1.20000000E+00  1.20000000E+00
  1.20000000E+00  1.20000000E+00  1.20000000E+00  1.20000000E+00  1.20000000E+00
  1.20000000E+00  1.20000000E+00  1.20000000E+00  1.20000000E+00  1.20000000E+00
  1.20000000E+00  1.20000000E+00  1.20000000E+00  1.20000000E+00  1.20000000E+00
  1.20000000E+00  1.20000000E+00  1.20000000E+00  1.20000000E+00  1.20000000E+00
  1.20000000E+00  1.20000000E+00  1.20000000E+00  1.20000000E+00  1.20000000E+00
  1.20000000E+00  1.20000000E+00  1.20000000E+00  1.20000000E+00  1.20000000E+00
  1.20000000E+00  1.20000000E+00  1.20000000E+00  1.20000000E+00  1.20000000E+00
  1.20000000E+00  1.20000000E+00  1.20000000E+00  1.20000000E+00  1.20000000E+00
  1.20000000E+00  1.20000000E+00  1.20000000E+00  1.20000000E+00  1.20000000E+00
  1.20000000E+00  1.20000000E+00  1.20000000E+00  1.20000000E+00  1.20000000E+00
  1.20000000E+00  1.20000000E+00  1.20000000E+00  1.20000000E+00  1.20000000E+00
  1.20000000E+00  1.20000000E+00  1.20000000E+00  1.20000000E+00  1.20000000E+00
%FLAG SCNB_SCALE_FACTOR
%FORMAT(5E16.8)
  2.00000000E+00  2.00000000E+00  2.00000000E+00  2.00000000E+00  2.00000000E+00
  2.00000000E+00  2.00000000E+00  2.00000000E+00  2.00000000E+00  2.00000000E+00
  2.00000000E+00  2.00000000E+00  2.00000000E+00  2.00000000E+00  2.00000000E+00
  2.00000000E+00  2.00000000E+00  2.00000000E+00  2.00000000E+00  2.00000000E+00
  2.00000000E+00  2.00000000E+00  2.00000000E+00  2.00000000E+00  2.00000000E+00
  2.00000000E+00  2.00000000E+00  2.00000000E+00  2.00000000E+00  2.00000000E+00
  2.00000000E+00  2.00000000E+00  2.00000000E+00  2.00000000E+00  2.00000000E+00
  2.00000000E+00  2.00000000E+00  2.00000000E+00  2.00000000E+00  2.00000000E+00
  2.00000000E+00  2.00000000E+00  2.00000000E+00  2.00000000E+00  2.00000000E+00
  2.00000000E+00  2.00000000E+00  2.00000000E+00  2.00000000E+00  2.00000000E+00
  2.00000000E+00  2.00000000E+00  2.00000000E+00  2.00000000E+00  2.00000000E+00
  2.00000000E+00  2.00000000E+00  2.00000000E+00  2.00000000E+00  2.00000000E+00
  2.00000000E+00  2.00000000E+00  2.00000000E+00  2.00000000E+00  2.00000000E+00
  2.00000000E+00  2.00000000E+00  2.00000000E+00  2.00000000E+00  2.00000000E+00
  2.00000000E+00  2.00000000E+00  2.00000000E+00  2.00000000E+00  2.00000000E+00
%FLAG SOLTY
%FORMAT(5E16.8)

%FLAG LENNARD_JONES_ACOEF
%FORMAT(5E16.8)
  0.00000000E+00  0.00000000E+00  1.39982777E-01  0.00000000E+00  5.94667300E+01
  3.25969625E+03  0.00000000E+00  6.63368273E+01  3.50301067E+03  3.76169105E+03
  0.00000000E+00  4.90239937E+01  2.82099197E+03  3.03448006E+03  2.43828624E+03
  0.00000000E+00  8.90987508E+01  4.33325458E+03  4.64559155E+03  3.76169105E+03
  5.71629601E+03  0.00000000E+00  1.07193646E+02  4.98586848E+03  5.34045360E+03
  4.33325458E+03  6.55825601E+03  7.51607703E+03  0.00000000E+00  0.00000000E+00
  0.00000000E+00  0.00000000E+00  0.00000000E+00  0.00000000E+00  0.00000000E+00
  0.00000000E+00  0.00000000E+00  9.14716912E+00  8.79040886E+02  9.55000044E+02
  7.50063100E+02  1.21014911E+03  1.41077189E+03  0.00000000E+00  2.01823541E+02
  0.00000000E+00  1.39075623E-01  5.65363965E+01  6.30215200E+01  4.66530723E+01
  8.45092258E+01  1.01583521E+02  0.00000000E+00  8.79569027E+00  1.38032635E-01
  0.00000000E+00  5.78352684E+01  3.32626784E+03  3.57795711E+03  2.87505342E+03
  4.43530964E+03  5.10916075E+03  0.00000000E+00  8.84544347E+02  5.50376371E+01
  3.39005767E+03  0.00000000E+00  1.00417924E+02  4.77162373E+03  5.11317150E+03
  4.14474284E+03  6.28513799E+03  7.20681791E+03  0.00000000E+00  1.34169202E+03
  9.52021108E+01  4.88692384E+03  6.90855956E+03  0.00000000E+00  1.05103439E+02
  5.10916075E+03  5.47737117E+03  4.43530964E+03  6.73963720E+03  7.73223568E+03
  0.00000000E+00  1.42703904E+03  9.96885613E+01  5.22955465E+03  7.41026906E+03
  7.94617769E+03  0.00000000E+00  1.37574453E-01  5.38411501E+01  5.99788431E+01
  4.44659845E+01  8.03166617E+01  9.64710720E+01  0.00000000E+00  8.45902425E+00
  1.36422278E-01  5.24570081E+01  9.04434904E+01  9.47421632E+01  1.34728399E-01
  0.00000000E+00  2.48828086E-03  4.62642987E+00  5.28189878E+00  3.70012486E+00
  7.46295598E+00  9.22638396E+00  0.00000000E+00  4.94997704E-01  2.56436526E-03
  4.36660257E+00  8.53132435E+00  8.80612241E+00  2.61760843E-03  1.10360882E-05
  0.00000000E+00  2.27577561E+03  6.01816484E+04  6.37148278E+04  5.30987710E+04
  7.62451550E+04  8.61541883E+04  0.00000000E+00  2.01619733E+04  2.13359429E+03
  6.25963552E+04  8.31715633E+04  8.98799076E+04  2.00740581E+03  2.72753051E+02
  8.19971662E+05  0.00000000E+00  2.56678134E+03  6.78771368E+04  7.18621074E+04
  5.98885646E+04  8.59947003E+04  9.71708117E+04  0.00000000E+00  2.27401052E+04
  2.40641915E+03  7.06006146E+04  9.38067954E+04  1.01372942E+05  2.26409483E+03
  3.07630260E+02  9.24822270E+05  1.04308023E+06  0.00000000E+00  2.53456440E+03
  6.71095195E+04  7.10513128E+04  5.92092559E+04  8.50294791E+04  9.60832554E+04
  0.00000000E+00  2.24743442E+04  2.37627062E+03  6.97998263E+04  9.27554496E+04
  1.00235148E+05  2.23577481E+03  3.03553352E+02  9.14863930E+05  1.03184851E+06
  1.02073671E+06  0.00000000E+00  1.94008400E+03  5.42099106E+04  5.74592031E+04
  4.77581094E+04  6.89371259E+04  7.80065389E+04  0.00000000E+00  1.78601506E+04
  1.82074552E+03  5.63013422E+04  7.52549148E+04  8.12662403E+04  1.71458823E+03
  2.25372434E+02  7.56463928E+05  8.53193737E+05  8.43969952E+05  6.96551276E+05
  0.00000000E+00  2.12601181E+03  6.20665997E+04  6.58473870E+04  5.46147253E+04
  7.91627154E+04  8.96776989E+04  0.00000000E+00  2.01791425E+04  1.99687520E+03
  6.43853349E+04  8.64679274E+04  9.33217616E+04  1.88178855E+03  2.40872585E+02
  8.82619071E+05  9.95480466E+05  9.84684600E+05  8.11497350E+05  9.44293233E+05
  0.00000000E+00  1.02595236E+03  3.69471530E+04  3.93690817E+04  3.23283631E+04
  4.77908183E+04  5.44261042E+04  0.00000000E+00  1.12780457E+04  9.67470780E+02
  3.81142515E+04  5.23449021E+04  5.63419090E+04  9.14858779E+02  1.02912387E+02
  5.74393458E+05  6.47841731E+05  6.40712560E+05  5.24402060E+05  6.06829342E+05
  3.79876399E+05  0.00000000E+00  1.40467023E+03  4.66922514E+04  4.96707306E+04
  4.09427581E+04  6.00750218E+04  6.82786631E+04  0.00000000E+00  1.45985502E+04
  1.32258381E+03  4.82692694E+04  6.57310418E+04  7.08225575E+04  1.24900897E+03
  1.47660648E+02  7.01803794E+05  7.91544157E+05  7.82881336E+05  6.42430744E+05
  7.44975864E+05  4.71003287E+05  5.81803229E+05  0.00000000E+00  1.88214625E+03
  5.82169798E+04  6.18379568E+04  5.11473202E+04  7.45424739E+04  8.45678586E+04
  0.00000000E+00  1.86002079E+04  1.76974548E+03  6.02986271E+04  8.14835231E+04
  8.78765379E+04  1.66932268E+03  2.06280447E+02  8.48637713E+05  9.57153878E+05
  9.46731090E+05  7.78724870E+05  9.04754248E+05  5.77196189E+05  7.10552826E+05
  8.65113123E+05  0.00000000E+00  1.11043914E+03  3.74148715E+04  3.98127143E+04
  3.27958584E+04  4.81820985E+04  5.47803235E+04  0.00000000E+00  1.16505362E+04
  1.04581567E+03  3.86646725E+04  5.27277400E+04  5.68021765E+04  9.87857350E+02
  1.15813907E+02  5.65590822E+05  6.37913494E+05  6.30925504E+05  5.17507491E+05
  5.99897901E+05  3.78641356E+05  4.68011805E+05  5.71910667E+05  3.76435470E+05
  0.00000000E+00  1.54161417E+03  4.52250254E+04  4.79847950E+04  3.97899542E+04
  5.77011015E+04  6.53734853E+04  0.00000000E+00  1.46820101E+04  1.44810670E+03
  4.69084694E+04  6.30298721E+04  6.80216136E+04  1.36475542E+03  1.74176419E+02
  6.44468276E+05  7.26877088E+05  7.18991463E+05  5.92438683E+05  6.89296946E+05
  4.42689091E+05  5.43595012E+05  6.60321915E+05  4.37717034E+05  5.03152404E+05
  0.00000000E+00  5.85957523E+03  1.42615819E+05  1.50723105E+05  1.26117560E+05
  1.79659945E+05  2.02574546E+05  0.00000000E+00  4.90026081E+04  5.48504371E+03
  1.48672098E+05  1.95762765E+05  2.11783234E+05  5.15374979E+03  7.35778500E+02
  1.87390085E+06  2.11351845E+06  2.09089895E+06  1.73376823E+06  2.02752779E+06
  1.33368524E+06  1.62294350E+06  1.95529336E+06  1.30884564E+06  1.48082758E+06
  4.26366419E+06  0.00000000E+00  4.67000839E+04  7.90717672E+05  8.29137544E+05
  7.06361584E+05  9.71200354E+05  1.08463437E+06  0.00000000E+00  3.03899730E+05
  4.34270953E+04  8.32594410E+05  1.05299389E+06  1.14473311E+06  4.05705611E+04
  7.14853529E+03  8.82692541E+06  9.95563331E+06  9.85204211E+06  8.27439234E+06
  9.77669063E+06  6.74908715E+06  8.06472025E+06  9.55632483E+06  6.52407029E+06
  7.14865203E+06  1.96869108E+07  8.29924504E+07  0.00000000E+00  1.03647816E+03
  3.53273631E+04  3.76003821E+04  3.09565163E+04  4.55287866E+04  5.17786297E+04
  0.00000000E+00  1.09626082E+04  9.76372507E+02  3.64963020E+04  4.98316008E+04
  5.36743383E+04  9.22437635E+02  1.07376185E+02  5.36638892E+05  6.05259451E+05
  5.98623905E+05  4.90828454E+05  5.68798775E+05  3.58499435E+05  4.43355554E+05
  5.42046873E+05  3.56570991E+05  4.15011556E+05  1.24257203E+06  6.21001754E+06
  3.37728420E+05
%FLAG LENNARD_JONES_BCOEF
%FORMAT(5E16.8)
  0.00000000E+00  0.00000000E+00  9.37598976E-02  0.00000000E+00  1.93248820E+00
  1.43076527E+01  0.00000000E+00  2.01792524E+00  1.46638650E+01  1.50233639E+01
  0.00000000E+00  1.73473071E+00  1.31591746E+01  1.34932874E+01  1.20953369E+01
  0.00000000E+00  2.33864085E+00  1.63092814E+01  1.66953734E+01  1.50233639E+01
  1.85196588E+01  0.00000000E+00  2.59456373E+00  1.76949863E+01  1.81057616E+01
  1.63092814E+01  2.00642027E+01  2.17257828E+01  0.00000000E+00  0.00000000E+00
  0.00000000E+00  0.00000000E+00  0.00000000E+00  0.00000000E+00  0.00000000E+00
  0.00000000E+00  0.00000000E+00  7.57919667E-01  7.42992380E+00  7.65648470E+00
  6.78541827E+00  8.61880722E+00  9.41257003E+00  0.00000000E+00  3.56012899E+00
  0.00000000E+00  8.81020142E-02  1.77633303E+00  1.85418331E+00  1.59532201E+00
  2.14713966E+00  2.38106889E+00  0.00000000E+00  7.00640590E-01  8.27430886E-02
  0.00000000E+00  2.04464126E+00  1.55059847E+01  1.58996004E+01  1.42525182E+01
  1.77023375E+01  1.92174397E+01  0.00000000E+00  7.99614292E+00  1.88031730E+00
  1.67944276E+01  0.00000000E+00  2.52706841E+00  1.74198525E+01  1.78280753E+01
  1.60512210E+01  1.97659043E+01  2.14083478E+01  0.00000000E+00  9.23714573E+00
  2.31961108E+00  1.89134207E+01  2.10929191E+01  0.00000000E+00  2.75631727E+00
  1.92174397E+01  1.96722815E+01  1.77023375E+01  2.18216157E+01  2.36414051E+01
  0.00000000E+00  1.01563736E+01  2.53060240E+00  2.08590256E+01  2.32899892E+01
  2.57122925E+01  0.00000000E+00  8.30374121E-02  1.64271443E+00  1.71416196E+00
  1.47593342E+00  1.98360701E+00  2.19888978E+00  0.00000000E+00  6.51126010E-01
  7.79521441E-02  1.73959275E+00  2.14252117E+00  2.33785449E+00  7.34107347E-02
  0.00000000E+00  9.24653616E-03  3.98705627E-01  4.21184434E-01  3.52521383E-01
  5.00648264E-01  5.63047631E-01  0.00000000E+00  1.30416027E-01  8.84911469E-03
  4.15568027E-01  5.44840215E-01  5.90150328E-01  8.47240681E-03  4.55498033E-04
  0.00000000E+00  1.82891803E+01  9.40505980E+01  9.56748258E+01  8.73413012E+01
  1.04660679E+02  1.12529845E+02  0.00000000E+00  5.44372326E+01  1.66942130E+01
  1.02907011E+02  1.11262422E+02  1.23310980E+02  1.53451874E+01  4.68342836E+00
  5.31102864E+02  0.00000000E+00  2.06278363E+01  1.06076943E+02  1.07908863E+02
  9.85097219E+01  1.18043746E+02  1.26919150E+02  0.00000000E+00  6.13981767E+01
  1.88289189E+01  1.16065835E+02  1.25489661E+02  1.39078880E+02  1.73073921E+01
  5.28230309E+00  5.99015525E+02  6.75612247E+02  0.00000000E+00  2.04226110E+01
  1.05087646E+02  1.06903901E+02  9.75893223E+01  1.16947855E+02  1.25742895E+02
  0.00000000E+00  6.08139360E+01  1.86418091E+01  1.14981426E+02  1.24325688E+02
  1.37787728E+02  1.71355763E+01  5.22789272E+00  5.93591333E+02  6.69494459E+02
  6.63431737E+02  0.00000000E+00  1.74825352E+01  9.24130897E+01  9.40636541E+01
  8.57562161E+01  1.03031170E+02  1.10856114E+02  0.00000000E+00  5.30440533E+01
  1.59661159E+01  1.01040256E+02  1.09570372E+02  1.21392023E+02  1.46824710E+01
  4.40751799E+00  5.28126496E+02  5.95658566E+02  5.90251928E+02  5.24668528E+02
  0.00000000E+00  2.09604198E+01  1.13252061E+02  1.15327881E+02  1.05031585E+02
  1.26451907E+02  1.36131731E+02  0.00000000E+00  6.45756063E+01  1.91501910E+01
  1.23751804E+02  1.34516705E+02  1.48987394E+02  1.76168249E+01  5.21867651E+00
  6.53361429E+02  7.36907417E+02  7.30206155E+02  6.48597119E+02  8.01323529E+02
  0.00000000E+00  1.53505284E+01  9.21192136E+01  9.40124296E+01  8.51921330E+01
  1.03580945E+02  1.11805549E+02  0.00000000E+00  5.08951803E+01  1.40526804E+01
  1.00379343E+02  1.10338858E+02  1.22044000E+02  1.29497639E+01  3.59619399E+00
  5.55666448E+02  6.26720080E+02  6.20970728E+02  5.49675335E+02  6.77220874E+02
  5.64885984E+02  0.00000000E+00  1.79702257E+01  1.03606917E+02  1.05648788E+02
  9.59185913E+01  1.16187983E+02  1.25287818E+02  0.00000000E+00  5.79323581E+01
  1.64383587E+01  1.13016701E+02  1.23703833E+02  1.36896727E+02  1.51381989E+01
  4.30971229E+00  6.14502845E+02  6.93079947E+02  6.86742760E+02  6.08686716E+02
  7.50714425E+02  6.29300710E+02  6.99746810E+02  0.00000000E+00  2.08605096E+01
  1.16017383E+02  1.18215302E+02  1.07512157E+02  1.29792032E+02  1.39830173E+02
  0.00000000E+00  6.55778432E+01  1.90692733E+01  1.26675569E+02  1.38122581E+02
  1.52923989E+02  1.75506604E+01  5.10830492E+00  6.77655696E+02  7.64308217E+02
  7.57340751E+02  6.72054626E+02  8.29661356E+02  6.98618155E+02  7.75502024E+02
  8.58130004E+02  0.00000000E+00  1.45902714E+01  8.46911674E+01  8.63723599E+01
  7.83922976E+01  9.50181887E+01  1.02477444E+02  0.00000000E+00  4.72594809E+01
  1.33482420E+01  9.23664132E+01  1.01173582E+02  1.11953944E+02  1.22938581E+01
  3.48534600E+00  5.03752097E+02  5.68167388E+02  5.62969425E+02  4.98871431E+02
  6.15165511E+02  5.15240418E+02  5.73100668E+02  6.35328732E+02  4.69350655E+02
  0.00000000E+00  1.53501807E+01  8.31409640E+01  8.46691831E+01  7.71010455E+01
  9.28465134E+01  9.99600502E+01  0.00000000E+00  4.73716383E+01  1.40251151E+01
  9.08431526E+01  9.87712192E+01  1.09393126E+02  1.29026271E+01  3.81654050E+00
  4.80149098E+02  5.41546250E+02  5.36620538E+02  4.76608379E+02  5.88797748E+02
  4.97456336E+02  5.51505564E+02  6.09567648E+02  4.51916854E+02  4.32634597E+02
  0.00000000E+00  3.95051895E+01  1.94896900E+02  1.98088334E+02  1.81199404E+02
  2.16269171E+02  2.32280910E+02  0.00000000E+00  1.14243284E+02  3.60322711E+01
  2.13489607E+02  2.29782888E+02  2.54804909E+02  3.30984635E+01  1.03548588E+01
  1.08079689E+03  1.21899948E+03  1.20800124E+03  1.07629402E+03  1.33303578E+03
  1.13979741E+03  1.25793819E+03  1.38466735E+03  1.03157656E+03  9.79758754E+02
  2.19459223E+03  0.00000000E+00  1.38866468E+02  5.71411902E+02  5.78495189E+02
  5.33949270E+02  6.26095925E+02  6.69237459E+02  0.00000000E+00  3.54244990E+02
  1.26240719E+02  6.29066019E+02  6.63564343E+02  7.37618163E+02  1.15629635E+02
  4.01880232E+01  2.92074060E+03  3.29421866E+03  3.26498708E+03  2.92766201E+03
  3.64478415E+03  3.19257412E+03  3.49156180E+03  3.81155700E+03  2.86770216E+03
  2.68038058E+03  5.87176420E+03  1.50112408E+04  0.00000000E+00  1.39302283E+01
  8.13268156E+01  8.29511073E+01  7.52665654E+01  9.12786264E+01  9.84585495E+01
  0.00000000E+00  4.53038493E+01  1.27457805E+01  8.86836395E+01  9.71990750E+01
  1.07548022E+02  1.17400988E+01  3.31651291E+00  4.84918696E+02  5.46925741E+02
  5.41919728E+02  4.80128344E+02  5.91963324E+02  4.95452820E+02  5.51240038E+02
  6.11244531E+02  4.51426791E+02  4.34864620E+02  9.93299468E+02  2.76492470E+03
  4.34170484E+02
%FLAG BONDS_INC_HYDROGEN
%FORMAT(10I8)
       3       0      23       6       0      23      15      12      23      18
      12      23      24      21      22      30      27       8      33      27
       8      39      36       9      42      36       9      48      45       9
      51      45       9      60      57      19      63      57      19      66
      54       8      78      75      20      90      87       9      93      87
       9      96      87       9     102      99       9     105      99       9
     108      99       9     111      84       9     114      81       8     126
     123      20     141     138       9     144     138       9     147     138
       9     153     150       9     156     150       9     159     150       9
     162     135       9     165     132       9     168     132       9     171
     129       8     177     174       8     180     174       8     186     183
      18     213     210      15     216     207      15     219     204      15
     222     201      15     225     198      15     228     192       9     231
     192       9     234     189       8     246     243      20     267     264
      24     270     255       9     273     255       9     276     252       9
     279     252       9     282     249       8     294     291      20     303
     300       9     306     300       9     309     300       9     312     297
       8     324     321      20     339     336      21     342     336      21
     345     327       8     351     348       9     354     348       9     360
     357       9     363     357       9     369     366       9     372     366
       9     378     375       9     381     375       9     384     375       9
%FLAG BONDS_WITHOUT_HYDROGEN
%FORMAT(10I8)
       9       0      17      12       9      17      21       9      16      27
      21      13      36      27       6      45      36       6      54      45
       6      57      54      11      69      54       1      72      69       4
      75      69       2      81      75      12      84      81       6      87
      84       6      99      84       6     117      81       1     120     117
       4     123     117       2     129     123      12     132     129       6
     135     132       6     138     135       6     150     135       6     174
     129       6     183     174      10     189     183      10     192     189
       6     195     192       7     198     195      14     201     198      14
     204     201      14     207     204      14     210     207      14     237
     189       1     240     237       4     243     237       2     249     243
      12     252     249       6     255     252       6     258     255       1
     261     258       4     264     258       5     285     249       1     288
     285       4     291     285       2     297     291      12     300     297
       6     315     297       1     318     315       4     321     315       2
     327     321      12     330     327       1     333     330       4     336
     330       3     348     327       6     357     348       6     366     357
       6     375     366       6     210     195      14
%FLAG ANGLES_INC_HYDROGEN
%FORMAT(10I8)
       3       0       6      43       3       0       9      34       6       0
       9      34       9      12      15      34       9      12      18      34
      15      12      18      43       9      21      24      33      24      21
      27      29      21      27      30      39      21      27      33      39
      30      27      33      35      30      27      36      17      33      27
      36      17      27      36      39      18      27      36      42      18
      39      36      42      40      39      36      45      18      42      36
      45      18      36      45      48      18      36      45      51      18
      48      45      51      40      48      45      54      18      51      45
      54      18      45      54      66      17      57      54      66      37
      66      54      69       2      54      57      60      26      54      57
      63      26      60      57      63      41      69      75      78       8
      78      75      81      27      75      81     114      38      84      81
     114      17     114      81     117       2      81      84     111      18
      87      84     111      18      99      84     111      18      84      87
      90      18      84      87      93      18      84      87      96      18
      90      87      93      40      90      87      96      40      93      87
      96      40      84      99     102      18      84      99     105      18
      84      99     108      18     102      99     105      40     102      99
     108      40     105      99     108      40     117     123     126       8
     126     123     129      27     123     129     171      38     132     129
     171      17     171     129     174      17     129     132     165      18
     129     132     168      18     135     132     165      18     135     132
     168      18     165     132     168      40     132     135     162      18
     138     135     162      18     150     135     162      18     135     138
     141      18     135     138     144      18     135     138     147      18
     141     138     144      40     141     138     147      40     144     138
     147      40     135     150     153      18     135     150     156      18
     135     150     159      18     153     150     156      40     153     150
     159      40     156     150     159      40     129     174     177      17
     129     174     180      17     177     174     180      35     177     174
     183      36     180     174     183      36     174     183     186      25
     186     183     189      25     183     189     234      36     192     189
     234      17     234     189     237       2     189     192     228      18
     189     192     231      18     195     192     228      30     195     192
     231      30     228     192     231      40     195     198     225      32
     201     198     225      32     198     201     222      32     204     201
     222      32     201     204     219      32     207     204     219      32
     204     207     216      32     210     207     216      32     207     210
     213      32     213     210     195      32     237     243     246       8
     246     243     249      27     243     249     282      38     252     249
     282      17     282     249     285       2     249     252     276      18
     249     252     279      18     255     252     276      18     255     252
     279      18     276     252     279      40     252     255     270      18
     252     255     273      18     258     255     270       3     258     255
     273       3     270     255     273      40     258     264     267      10
     285     291     294       8     294     291     297      27     291     297
     312      38     300     297     312      17     312     297     315       2
     297     300     303      18     297     300     306      18     297     300
     309      18     303     300     306      40     303     300     309      40
     306     300     309      40     315     321     324       8     324     321
     327      27     321     327     345      38     330     327     345       2
     345     327     348      17     330     336     339       9     330     336
     342       9     339     336     342      42     327     348     351      18
     327     348     354      18     351     348     354      40     351     348
     357      18     354     348     357      18     348     357     360      18
     348     357     363      18     360     357     363      40     360     357
     366      18     363     357     366      18     357     366     369      18
     357     366     372      18     369     366     372      40     369     366
     375      18     372     366     375      18     366     375     378      18
     366     375     381      18     366     375     384      18     378     375
     381      40     378     375     384      40     381     375     384      40
%FLAG ANGLES_WITHOUT_HYDROGEN
%FORMAT(10I8)
       0       9      12      47       0       9      21      46      12       9
      21      46       9      21      27      28      21      27      36      22
      27      36      45      15      36      45      54      15      45      54
      57      20      45      54      69       1      57      54      69       5
      54      69      72      13      54      69      75      11      72      69
      75      44      69      75      81       7      75      81      84      21
      75      81     117       6      84      81     117       1      81      84
      87      15      81      84      99      15      87      84      99      15
      81     117     120      13      81     117     123      11     120     117
     123      44     117     123     129       7     123     129     132      21
     123     129     174      21     132     129     174      15     129     132
     135      15     132     135     138      15     132     135     150      15
     138     135     150      15     129     174     183      19     174     183
     189      24     183     189     192      19     183     189     237       4
     192     189     237       1     189     192     195      16     192     195
     198      23     192     195     210      23     198     195     210      31
     195     198     201      31     198     201     204      31     201     204
     207      31     204     207     210      31     207     210     195      31
     189     237     240      13     189     237     243      11     240     237
     243      44     237     243     249       7     243     249     252      21
     243     249     285       6     252     249     285       1     249     252
     255      15     252     255     258       1     255     258     261      13
     255     258     264      14     261     258     264      48     249     285
     288      13     249     285     291      11     288     285     291      44
     285     291     297       7     291     297     300      21     291     297
     315       6     300     297     315       1     297     315     318      13
     297     315     321      11     318     315     321      44     315     321
     327       7     321     327     330       6     321     327     348      21
     330     327     348       1     327     330     333      13     327     330
     336      12     333     330     336      45     327     348     357      15
     348     357     366      15     357     366     375      15
%FLAG DIHEDRALS_INC_HYDROGEN
%FORMAT(10I8)
       3       0       9      12      54       3       0       9      21      51
       6       0       9      12      54       6       0       9      21      51
       0       9      12      15      54       0       9      12      18      54
       0       9      21      24      53      15      12       9      21      51
      18      12       9      21      51      12       9      21      24      53
       9      21      27      30      35       9      21      27      33      35
      24      21      27      30      36      24      21      27      33      36
      24      21      27      36      24      21      27      36      39      66
      21      27      36      42      66      30      27      36      39      66
      30      27      36      42      66      30      27      36      45      66
      33      27      36      39      66      33      27      36      42      66
      33      27      36      45      66      27      36      45      48      37
      27      36      45      51      37      39      36      45      48      38
      39      36      45      51      38      39      36      45      54      37
      42      36      45      48      38      42      36      45      51      38
      42      36      45      54      37      36      45      54      66      66
      48      45      54      57      66      48      45      54      66      66
      48      45      54      69      66      51      45      54      57      66
      51      45      54      66      66      51      45      54      69      66
      45      54      57      60      17      45      54      57      63      17
      60      57      54      66      32      63      57      54      66      32
      60      57      54      69       4      63      57      54      69       4
      66      54      69      72      28      66      54     -69      72      29
      66      54      69      75      65      54      69      75      78      10
      72      69      75      78      61      72      69     -75      78      62
      69      75      81     114      33      78      75      81      84      22
      78      75      81     114      34      78      75      81     117       7
      75      81      84     111      66      87      84      81     114      66
      99      84      81     114      66     111      84      81     114      66
     111      84      81     117      66     114      81     117     120      28
     114      81    -117     120      29     114      81     117     123      65
      81      84      87      90      37      81      84      87      93      37
      81      84      87      96      37      81      84      99     102      37
      81      84      99     105      37      81      84      99     108      37
      90      87      84      99      37      93      87      84      99      37
      96      87      84      99      37      87      84      99     102      37
      87      84      99     105      37      87      84      99     108      37
      90      87      84     111      38      93      87      84     111      38
      96      87      84     111      38     102      99      84     111      38
     105      99      84     111      38     108      99      84     111      38
      81     117     123     126      10     120     117     123     126      61
     120     117    -123     126      62     117     123     129     171      33
     126     123     129     132      22     126     123     129     171      34
     126     123     129     174      22     123     129     132     165      66
     123     129     132     168      66     123     129     174     177      66
     123     129     174     180      66     135     132     129     171      66
     165     132     129     171      66     168     132     129     171      66
     165     132     129     174      37     168     132     129     174      37
     132     129     174     177      66     132     129     174     180      66
     171     129     174     177      66     171     129     174     180      66
     171     129     174     183      66     129     132     135     162      37
     138     135     132     165      37     150     135     132     165      37
     162     135     132     165      38     138     135     132     168      37
     150     135     132     168      37     162     135     132     168      38
     132     135     138     141      37     132     135     138     144      37
     132     135     138     147      37     132     135     150     153      37
     132     135     150     156      37     132     135     150     159      37
     141     138     135     150      37     144     138     135     150      37
     147     138     135     150      37     138     135     150     153      37
     138     135     150     156      37     138     135     150     159      37
     141     138     135     162      38     144     138     135     162      38
     147     138     135     162      38     153     150     135     162      38
     156     150     135     162      38     159     150     135     162      38
     129     174     183     186      16     177     174     183     186      31
     177     174     183     189      30     180     174     183     186      31
     180     174     183     189      30     174     183     189     234      30
     186     183     189     192      16     186     183     189     234      31
     186     183     189     237       3     183     189     192     228      66
     183     189     192     231      66     195     192     189     234      66
     228     192     189     234      66     231     192     189     234      66
     228     192     189     237      66     231     192     189     237      66
     234     189     237     240      28     234     189    -237     240      29
     234     189     237     243      65     198     195     192     228      39
     210     195     192     228      39     198     195     192     231      39
     210     195     192     231      39     192     195     198     225      67
     192     195     210     213      67     225     198     195     210      67
     198     195     210     213      67     195     198     201     222      67
     204     201     198     225      67     222     201     198     225      67
     198     201     204     219      67     207     204     201     222      67
     219     204     201     222      67     201     204     207     216      67
     210     207     204     219      67     216     207     204     219      67
     204     207     210     213      67     213     210     207     216      67
     195     210     207     216      67     189     237     243     246      10
     240     237     243     246      61     240     237    -243     246      62
     237     243     249     282      33     246     243     249     252      22
     246     243     249     282      34     246     243     249     285       7
     243     249     252     276      66     243     249     252     279      66
     255     252     249     282      66     276     252     249     282      66
     279     252     249     282      66     276     252     249     285      66
     279     252     249     285      66     282     249     285     288      28
     282     249    -285     288      29     282     249     285     291      65
     249     252     255     270      37     249     252     255     273      37
     258     255     252     276      66     270     255     252     276      38
     273     255     252     276      38     258     255     252     279      66
     270     255     252     279      38     273     255     252     279      38
     261     258     255     270      58     261     258    -255     270      59
     264     258     255     270      65     261     258     255     273      58
     261     258    -255     273      59     264     258     255     273      65
     255     258     264     267      40     261     258     264     267      41
     261     258    -264     267      42     249     285     291     294      10
     288     285     291     294      61     288     285    -291     294      62
     285     291     297     312      33     294     291     297     300      22
     294     291     297     312      34     294     291     297     315       7
     291     297     300     303      66     291     297     300     306      66
     291     297     300     309      66     303     300     297     312      66
     306     300     297     312      66     309     300     297     312      66
     303     300     297     315      66     306     300     297     315      66
     309     300     297     315      66     312     297     315     318      28
     312     297    -315     318      29     312     297     315     321      65
     297     315     321     324      10     318     315     321     324      61
     318     315    -321     324      62     315     321     327     345      33
     324     321     327     330       7     324     321     327     345      34
     324     321     327     348      22     321     327     348     351      66
     321     327     348     354      66     333     330     327     345      28
     333     330    -327     345      29     336     330     327     345      65
     330     327     348     351      66     330     327     348     354      66
     345     327     348     351      66     345     327     348     354      66
     345     327     348     357      66     327     330     336     339      11
     327     330     336     342      11     333     330     336     339      63
     333     330    -336     339      64     333     330     336     342      63
     333     330    -336     342      64     327     348     357     360      37
     327     348     357     363      37     351     348     357     360      38
     351     348     357     363      38     351     348     357     366      37
     354     348     357     360      38     354     348     357     363      38
     354     348     357     366      37     348     357     366     369      37
     348     357     366     372      37     360     357     366     369      38
     360     357     366     372      38     360     357     366     375      37
     363     357     366     369      38     363     357     366     372      38
     363     357     366     375      37     357     366     375     378      37
     357     366     375     381      37     357     366     375     384      37
     369     366     375     378      38     369     366     375     381      38
     369     366     375     384      38     372     366     375     378      38
     372     366     375     381      38     372     366     375     384      38
      69      81     -75     -78      68     117     129    -123    -126      68
     195     201    -198    -225      74     198     204    -201    -222      74
     201     207    -204    -219      74     204     210    -207    -216      74
     195     207    -210    -213      74     237     249    -243    -246      68
     285     297    -291    -294      68     315     327    -321    -324      68
     330     339    -336    -342      69
%FLAG DIHEDRALS_WITHOUT_HYDROGEN
%FORMAT(10I8)
       0       9      21      27      52      12       9      21      27      52
       9      21      27      36      23      21      27      36      45      66
      27      36      45      54      12      27      36     -45      54      13
      27      36     -45      54      14      36      45      54      57      66
      36      45      54      69       1      45      54      69      72      55
      45      54     -69      72      56      45      54     -69      72      57
      45      54      69      75      43      45      54     -69      75      44
      57      54      69      72      65      57      54      69      75      65
      54      69      75      81       8      54      69     -75      81       9
      72      69      75      81      60      69      75      81      84      18
      69      75     -81      84      19      69      75     -81      84      20
      69      75     -81      84      21      69      75      81     117       5
      69      75     -81     117       6      75      81      84      87      66
      75      81      84      99      66      75      81     117     120      65
      75      81     117     123      45      75      81    -117     123      46
      87      84      81     117       1      99      84      81     117       1
      84      81     117     120      55      84      81    -117     120      56
      84      81    -117     120      57      84      81     117     123      43
      84      81    -117     123      44      81     117     123     129       8
      81     117    -123     129       9     120     117     123     129      60
     117     123     129     132      18     117     123    -129     132      19
     117     123    -129     132      20     117     123    -129     132      21
     117     123     129     174      18     117     123    -129     174      19
     117     123    -129     174      20     117     123    -129     174      21
     123     129     132     135      66     123     129     174     183      66
     135     132     129     174      12     135     132    -129     174      13
     135     132    -129     174      14     132     129     174     183      66
     129     132     135     138      12     129     132    -135     138      13
     129     132    -135     138      14     129     132     135     150      12
     129     132    -135     150      13     129     132    -135     150      14
     129     174     183     189      25     129     174    -183     189      26
     174     183     189     192      25     174     183    -189     192      26
     174     183     189     237       2     183     189     192     195      66
     183     189     237     240      65     183     189     237     243      65
     195     192     189     237      27     192     189     237     240      55
     192     189    -237     240      56     192     189    -237     240      57
     192     189     237     243      43     192     189    -237     243      44
     189     192     195     198      15     189     192     195     210      15
     192     195     198     201      67     192     195     210     207      67
     201     198     195     210      67     198     195     210     207      67
     195     198     201     204      67     198     201    -204     207      67
     201     204    -207     210      67     204     207    -210     195      67
     189     237     243     249       8     189     237    -243     249       9
     240     237     243     249      60     237     243     249     252      18
     237     243    -249     252      19     237     243    -249     252      20
     237     243    -249     252      21     237     243     249     285       5
     237     243    -249     285       6     243     249     252     255      66
     243     249     285     288      65     243     249     285     291      45
     243     249    -285     291      46     255     252     249     285       1
     252     249     285     288      55     252     249    -285     288      56
     252     249    -285     288      57     252     249     285     291      43
     252     249    -285     291      44     249     252     255     258       1
     252     255     258     261      55     252     255    -258     261      56
     252     255    -258     261      57     252     255     258     264      65
     249     285     291     297       8     249     285    -291     297       9
     288     285     291     297      60     285     291     297     300      18
     285     291    -297     300      19     285     291    -297     300      20
     285     291    -297     300      21     285     291     297     315       5
     285     291    -297     315       6     291     297     315     318      65
     291     297     315     321      45     291     297    -315     321      46
     300     297     315     318      55     300     297    -315     318      56
     300     297    -315     318      57     300     297     315     321      43
     300     297    -315     321      44     297     315     321     327       8
     297     315    -321     327       9     318     315     321     327      60
     315     321     327     330       5     315     321    -327     330       6
     315     321     327     348      18     315     321    -327     348      19
     315     321    -327     348      20     315     321    -327     348      21
     321     327     330     333      65     321     327     330     336      49
     321     327    -330     336      50     321     327     348     357      66
     333     330     327     348      55     333     330    -327     348      56
     333     330    -327     348      57     336     330     327     348      47
     336     330    -327     348      48     330     327     348     357       1
     327     348     357     366      12     327     348    -357     366      13
     327     348    -357     366      14     348     357     366     375      12
     348     357    -366     375      13     348     357    -366     375      14
      21       0      -9     -12      75      54      75     -69     -72      70
      81     123    -117    -120      70     198     210    -195    -192      73
     189     243    -237    -240      70     255     261    -258    -264      72
     249     291    -285    -288      70     297     321    -315    -318      70
     327     336    -330    -333      71
%FLAG EXCLUDED_ATOMS_LIST
%FORMAT(10I8)
       2       3       4       5       6       7       8       9      10       3
       4       5       8       4       5       8       5       6       7       8
       9      10      11      12      13       6       7       8       9      10
       7       8       8       9      10      11      12      13      14      15
      16      10      11      12      13      11      12      13      14      15
      16      17      18      19      12      13      14      15      16      13
      14      15      16      14      15      16      17      18      19      20
      23      24      15      16      17      18      19      16      17      18
      19      17      18      19      20      21      22      23      24      25
      26      18      19      20      23      24      19      20      23      24
      20      21      22      23      24      25      26      27      28      21
      22      23      24      25      26      22      23      24      23      24
      24      25      26      25      26      27      28      29      39      40
      26      27      28      27      28      29      30      34      38      39
      40      41      42      28      29      39      40      29      30      31
      32      33      34      35      36      37      38      39      40      41
      42      43      44      30      31      32      33      34      35      36
      37      38      39      40      41      42      31      32      33      34
      35      36      37      38      39      40      32      33      34      38
      33      34      38      34      38      35      36      37      38      39
      40      36      37      38      37      38      38      39      40      40
      41      42      41      42      43      44      45      58      59      42
      43      44      43      44      45      46      56      57      58      59
      60      61      62      44      45      58      59      45      46      47
      51      55      56      57      58      59      60      61      62      63
      64      46      47      48      49      50      51      52      53      54
      55      56      57      58      59      60      61      62      47      48
      49      50      51      52      53      54      55      56      57      58
      59      48      49      50      51      52      53      54      55      56
      57      49      50      51      55      50      51      55      51      55
      52      53      54      55      56      57      53      54      55      54
      55      55      56      57      57      58      59      58      59      59
      60      61      62      60      61      62      63      64      65      79
      80      61      62      63      64      62      63      64      63      64
      65      66      77      78      79      80      81      82      64      65
      79      80      65      66      67      71      77      78      79      80
      81      82      83      84      66      67      68      70      71      72
      76      77      78      79      80      81      82      67      68      69
      70      71      72      73      75      76      77      78      79      80
      68      69      70      71      72      74      75      76      77      78
      69      70      71      73      74      75      76      70      71      72
      73      74      75      76      71      72      73      74      75      72
      73      74      76      77      78      73      74      75      76       0
      78      79      80      79      80      80      81      82      81      82
      83      84      85      95      96      82      83      84      83      84
      85      86      93      94      95      96      97      98      84      85
      95      96      85      86      87      91      92      93      94      95
      96      97      98      99     100      86      87      88      89      91
      92      93      94      95      96      97      98      87      88      89
      90      91      92      93      94      95      96      88      89      90
      91      92      93      94      89      90      91      92      90      91
      92       0      92      93      94      93      94      94      95      96
      95      96      96      97      98      97      98      99     100     101
     105     106      98      99     100      99     100     101     102     103
     104     105     106     107     108     100     101     105     106     101
     102     103     104     105     106     107     108     109     110     102
     103     104     105     106     107     108     103     104     105     106
     104     105     106     105     106     106     107     108     107     108
     109     110     111     116     117     108     109     110     109     110
     111     112     113     116     117     118     119     120     110     111
     116     117     111     112     113     114     115     116     117     118
     119     120     121     122     123     112     113     114     115     116
     117     118     119     120     113     114     115     116     117     114
     115     116     117     115       0     117     118     119     120     118
     119     120     121     122     123     124     125     126     119     120
     121     122     123     120     121     122     123     121     122     123
     124     125     126     127     128     129     122     123     124     125
     126     123     124     125     126     124     125     126     127     128
     129     125     126     127     128     129     126     127     128     129
     127     128     129     128     129     129       0
%FLAG HBOND_ACOEF
%FORMAT(5E16.8)

%FLAG HBOND_BCOEF
%FORMAT(5E16.8)

%FLAG HBCUT
%FORMAT(5E16.8)

%FLAG AMBER_ATOM_TYPE
%FORMAT(20a4)
nv  hn  hn  cz  nv  hn  hn  nu  hn  c3  h1  h1  c3  hc  hc  c3  hc  hc  c3  n8  
hn  hn  h1  c   o   ns  hn  c3  c3  c3  hc  hc  hc  c3  hc  hc  hc  hc  h1  c   
o   ns  hn  c3  c3  c3  c3  hc  hc  hc  c3  hc  hc  hc  hc  hc  hc  h1  c3  h1  
h1  n7  hn  c3  c3  ca  ca  ca  ca  ca  ca  ha  ha  ha  ha  ha  hc  hc  h1  c   
o   ns  hn  c3  c3  c3  c   o   oh  ho  hc  hc  hc  hc  h1  c   o   ns  hn  c3  
c3  hc  hc  hc  h1  c   o   ns  hn  c3  c   o   nt  hn  hn  h1  c3  hc  hc  c3  
hc  hc  c3  hc  hc  c3  hc  hc  hc  
%FLAG TREE_CHAIN_CLASSIFICATION
%FORMAT(20a4)
BLA BLA BLA BLA BLA BLA BLA BLA BLA BLA BLA BLA BLA BLA BLA BLA BLA BLA BLA BLA 
BLA BLA BLA BLA BLA BLA BLA BLA BLA BLA BLA BLA BLA BLA BLA BLA BLA BLA BLA BLA 
BLA BLA BLA BLA BLA BLA BLA BLA BLA BLA BLA BLA BLA BLA BLA BLA BLA BLA BLA BLA 
BLA BLA BLA BLA BLA BLA BLA BLA BLA BLA BLA BLA BLA BLA BLA BLA BLA BLA BLA BLA 
BLA BLA BLA BLA BLA BLA BLA BLA BLA BLA BLA BLA BLA BLA BLA BLA BLA BLA BLA BLA 
BLA BLA BLA BLA BLA BLA BLA BLA BLA BLA BLA BLA BLA BLA BLA BLA BLA BLA BLA BLA 
BLA BLA BLA BLA BLA BLA BLA BLA BLA 
%FLAG JOIN_ARRAY
%FORMAT(10I8)
       0       0       0       0       0       0       0       0       0       0
       0       0       0       0       0       0       0       0       0       0
       0       0       0       0       0       0       0       0       0       0
       0       0       0       0       0       0       0       0       0       0
       0       0       0       0       0       0       0       0       0       0
       0       0       0       0       0       0       0       0       0       0
       0       0       0       0       0       0       0       0       0       0
       0       0       0       0       0       0       0       0       0       0
       0       0       0       0       0       0       0       0       0       0
       0       0       0       0       0       0       0       0       0       0
       0       0       0       0       0       0       0       0       0       0
       0       0       0       0       0       0       0       0       0       0
       0       0       0       0       0       0       0       0       0
%FLAG IROTAT
%FORMAT(10I8)
       0       0       0       0       0       0       0       0       0       0
       0       0       0       0       0       0       0       0       0       0
       0       0       0       0       0       0       0       0       0       0
       0       0       0       0       0       0       0       0       0       0
       0       0       0       0       0       0       0       0       0       0
       0       0       0       0       0       0       0       0       0       0
       0       0       0       0       0       0       0       0       0       0
       0       0       0       0       0       0       0       0       0       0
       0       0       0       0       0       0       0       0       0       0
       0       0       0       0       0       0       0       0       0       0
       0       0       0       0       0       0       0       0       0       0
       0       0       0       0       0       0       0       0       0       0
       0       0       0       0       0       0       0       0       0
%FLAG RADIUS_SET
%FORMAT(1a80)
ArgH and AspGluO modified Bondi2 radii (mbondi3)                                
%FLAG RADII
%FORMAT(5E16.8)
  1.55000000E+00  1.30000000E+00  1.30000000E+00  1.70000000E+00  1.55000000E+00
  1.30000000E+00  1.30000000E+00  1.55000000E+00  1.30000000E+00  1.70000000E+00
  1.20000000E+00  1.20000000E+00  1.70000000E+00  1.20000000E+00  1.20000000E+00
  1.70000000E+00  1.20000000E+00  1.20000000E+00  1.70000000E+00  1.55000000E+00
  1.30000000E+00  1.30000000E+00  1.20000000E+00  1.70000000E+00  1.50000000E+00
  1.55000000E+00  1.30000000E+00  1.70000000E+00  1.70000000E+00  1.70000000E+00
  1.20000000E+00  1.20000000E+00  1.20000000E+00  1.70000000E+00  1.20000000E+00
  1.20000000E+00  1.20000000E+00  1.20000000E+00  1.20000000E+00  1.70000000E+00
  1.50000000E+00  1.55000000E+00  1.30000000E+00  1.70000000E+00  1.70000000E+00
  1.70000000E+00  1.70000000E+00  1.20000000E+00  1.20000000E+00  1.20000000E+00
  1.70000000E+00  1.20000000E+00  1.20000000E+00  1.20000000E+00  1.20000000E+00
  1.20000000E+00  1.20000000E+00  1.20000000E+00  1.70000000E+00  1.20000000E+00
  1.20000000E+00  1.55000000E+00  1.30000000E+00  1.70000000E+00  1.70000000E+00
  1.70000000E+00  1.70000000E+00  1.70000000E+00  1.70000000E+00  1.70000000E+00
  1.70000000E+00  1.20000000E+00  1.20000000E+00  1.20000000E+00  1.20000000E+00
  1.20000000E+00  1.20000000E+00  1.20000000E+00  1.20000000E+00  1.70000000E+00
  1.50000000E+00  1.55000000E+00  1.30000000E+00  1.70000000E+00  1.70000000E+00
  1.70000000E+00  1.70000000E+00  1.50000000E+00  1.50000000E+00  1.20000000E+00
  1.20000000E+00  1.20000000E+00  1.20000000E+00  1.20000000E+00  1.20000000E+00
  1.70000000E+00  1.50000000E+00  1.55000000E+00  1.30000000E+00  1.70000000E+00
  1.70000000E+00  1.20000000E+00  1.20000000E+00  1.20000000E+00  1.20000000E+00
  1.70000000E+00  1.50000000E+00  1.55000000E+00  1.30000000E+00  1.70000000E+00
  1.70000000E+00  1.50000000E+00  1.55000000E+00  1.30000000E+00  1.30000000E+00
  1.20000000E+00  1.70000000E+00  1.20000000E+00  1.20000000E+00  1.70000000E+00
  1.20000000E+00  1.20000000E+00  1.70000000E+00  1.20000000E+00  1.20000000E+00
  1.70000000E+00  1.20000000E+00  1.20000000E+00  1.20000000E+00
%FLAG SCREEN
%FORMAT(5E16.8)
  7.90000000E-01  8.50000000E-01  8.50000000E-01  7.20000000E-01  7.90000000E-01
  8.50000000E-01  8.50000000E-01  7.90000000E-01  8.50000000E-01  7.20000000E-01
  8.50000000E-01  8.50000000E-01  7.20000000E-01  8.50000000E-01  8.50000000E-01
  7.20000000E-01  8.50000000E-01  8.50000000E-01  7.20000000E-01  7.90000000E-01
  8.50000000E-01  8.50000000E-01  8.50000000E-01  7.20000000E-01  8.50000000E-01
  7.90000000E-01  8.50000000E-01  7.20000000E-01  7.20000000E-01  7.20000000E-01
  8.50000000E-01  8.50000000E-01  8.50000000E-01  7.20000000E-01  8.50000000E-01
  8.50000000E-01  8.50000000E-01  8.50000000E-01  8.50000000E-01  7.20000000E-01
  8.50000000E-01  7.90000000E-01  8.50000000E-01  7.20000000E-01  7.20000000E-01
  7.20000000E-01  7.20000000E-01  8.50000000E-01  8.50000000E-01  8.50000000E-01
  7.20000000E-01  8.50000000E-01  8.50000000E-01  8.50000000E-01  8.50000000E-01
  8.50000000E-01  8.50000000E-01  8.50000000E-01  7.20000000E-01  8.50000000E-01
  8.50000000E-01  7.90000000E-01  8.50000000E-01  7.20000000E-01  7.20000000E-01
  7.20000000E-01  7.20000000E-01  7.20000000E-01  7.20000000E-01  7.20000000E-01
  7.20000000E-01  8.50000000E-01  8.50000000E-01  8.50000000E-01  8.50000000E-01
  8.50000000E-01  8.50000000E-01  8.50000000E-01  8.50000000E-01  7.20000000E-01
  8.50000000E-01  7.90000000E-01  8.50000000E-01  7.20000000E-01  7.20000000E-01
  7.20000000E-01  7.20000000E-01  8.50000000E-01  8.50000000E-01  8.50000000E-01
  8.50000000E-01  8.50000000E-01  8.50000000E-01  8.50000000E-01  8.50000000E-01
  7.20000000E-01  8.50000000E-01  7.90000000E-01  8.50000000E-01  7.20000000E-01
  7.20000000E-01  8.50000000E-01  8.50000000E-01  8.50000000E-01  8.50000000E-01
  7.20000000E-01  8.50000000E-01  7.90000000E-01  8.50000000E-01  7.20000000E-01
  7.20000000E-01  8.50000000E-01  7.90000000E-01  8.50000000E-01  8.50000000E-01
  8.50000000E-01  7.20000000E-01  8.50000000E-01  8.50000000E-01  7.20000000E-01
  8.50000000E-01  8.50000000E-01  7.20000000E-01  8.50000000E-01  8.50000000E-01
  7.20000000E-01  8.50000000E-01  8.50000000E-01  8.50000000E-01
%FLAG IPOL
%FORMAT(1I8)
       0
