        43  EXT
         1         1  HYB       S1              1.8240000000       19.3080000000        6.6300000000  HETA      201            15.6100000000
         2         1  HYB       O2              2.3760000000       17.9820000000        6.6190000000  HETA      201            19.8800000000
         3         1  HYB       O3              1.7240000000       19.9940000000        7.8760000000  HETA      201            19.0300000000
         4         1  HYB       C4             -0.6100000000       22.0420000000        2.1300000000  HETA      201            22.2500000000
         5         1  HYB       C5              0.1660000000       22.5100000000        3.1460000000  HETA      201            22.4700000000
         6         1  HYB       C6              1.4510000000       21.8960000000        3.4250000000  HETA      201            20.4200000000
         7         1  HYB       C7              1.8860000000       20.8610000000        2.6750000000  HETA      201            16.9700000000
         8         1  HYB       C8              1.0520000000       20.3130000000        1.5570000000  HETA      201            19.8500000000
         9         1  HYB       C9             -0.1780000000       20.9390000000        1.3160000000  HETA      201            22.6600000000
        10         1  HYB       C10            -1.0160000000       20.4780000000        0.2450000000  HETA      201            19.0400000000
        11         1  HYB       C11            -0.6120000000       19.4170000000       -0.5220000000  HETA      201            18.8400000000
        12         1  HYB       C12             0.6330000000       18.7760000000       -0.2720000000  HETA      201            23.4200000000
        13         1  HYB       C13             1.4540000000       19.2330000000        0.7620000000  HETA      201            17.9400000000
        14         1  HYB       O14            10.5250000000       18.8910000000        5.6680000000  HETA      201            12.2600000000
        15         1  HYB       C15            10.7960000000       20.1250000000        4.9080000000  HETA      201             8.2400000000
        16         1  HYB       N16             8.4890000000       19.6090000000        4.3450000000  HETA      201             8.1300000000
        17         1  HYB       C17             9.3940000000       20.7360000000        4.6290000000  HETA      201             9.9900000000
        18         1  HYB       C18             8.8390000000       21.4910000000        5.8600000000  HETA      201             6.2100000000
        19         1  HYB       C19             7.6020000000       20.9790000000        6.5680000000  HETA      201             6.9400000000
        20         1  HYB       C20             6.3430000000       21.5780000000        6.4490000000  HETA      201            16.3900000000
        21         1  HYB       C21             5.1940000000       21.0610000000        7.0610000000  HETA      201            20.9400000000
        22         1  HYB       C22             5.3080000000       19.8990000000        7.8330000000  HETA      201            21.7200000000
        23         1  HYB       C23             6.5440000000       19.2680000000        7.9470000000  HETA      201            17.1400000000
        24         1  HYB       C24             7.6790000000       19.7990000000        7.3270000000  HETA      201            16.2600000000
        25         1  HYB       N25             5.3570000000       18.7700000000        3.2720000000  HETA      201             9.1100000000
        26         1  HYB       C26             6.7560000000       18.2700000000        3.2180000000  HETA      201             4.8000000000
        27         1  HYB       C27             7.6120000000       19.5940000000        3.2760000000  HETA      201             7.4300000000
        28         1  HYB       O28             7.5800000000       20.4920000000        2.4500000000  HETA      201             8.2400000000
        29         1  HYB       C29             7.0710000000       17.3990000000        1.9780000000  HETA      201             7.3900000000
        30         1  HYB       C30             6.6020000000       15.9480000000        2.1800000000  HETA      201             6.7100000000
        31         1  HYB       C31             6.3930000000       18.0850000000        0.7700000000  HETA      201             7.0500000000
        32         1  HYB       C32             4.5550000000       18.6780000000        4.3690000000  HETA      201             9.7200000000
        33         1  HYB       O33             4.9310000000       18.1940000000        5.4430000000  HETA      201            12.4500000000
        34         1  HYB       C34             3.1550000000       19.3100000000        4.2180000000  HETA      201            12.1800000000
        35         1  HYB       C35             3.2140000000       20.1150000000        2.8940000000  HETA      201            12.8100000000
        36         1  HYB       C36             2.7720000000       20.2240000000        5.4260000000  HETA      201            11.7100000000
        37         1  HYB       C37            -0.7470000000       18.1940000000        6.7260000000  HETA      201            20.0600000000
        38         1  HYB       C38             0.1130000000       19.2260000000        5.9540000000  HETA      201            17.4200000000
        39         1  HYB       C39             0.2700000000       18.6910000000        4.5100000000  HETA      201            16.3000000000
        40         1  HYB       C40            -0.5260000000       20.6370000000        5.9520000000  HETA      201            19.0700000000
        41         1  HYB       H14             9.9800000000       18.3660000000        5.0920000000  HETA      201             0.0000000000
        42         1  HYB       H16             8.5100000000       18.8010000000        4.9670000000  HETA      201             0.0000000000
        43         1  HYB       H25             4.9740000000       19.2090000000        2.4350000000  HETA      201             0.0000000000
