* GENERATE LIGAND
*  DATE:     1/24/26      7:39:56      CREATED BY USER: charmm-gui
*
        82  EXT
         1         1  LIG       S1              1.7410285824       19.1569535791        6.6275755711  LIG       1               0.0000000000
         2         1  LIG       O1              2.2108814630       17.7999483662        6.6986026572  LIG       1               0.0000000000
         3         1  LIG       O2              1.7320043822       19.9962952156        7.7991296786  LIG       1               0.0000000000
         4         1  LIG       C1             -0.6367605727       22.0351375624        2.0568536867  LIG       1               0.0000000000
         5         1  LIG       C2              0.2162307400       22.5666678105        3.0228238750  LIG       1               0.0000000000
         6         1  LIG       C3              1.4925363475       22.0298381118        3.1919552672  LIG       1               0.0000000000
         7         1  LIG       C4              1.9026104265       20.8745303109        2.4968612330  LIG       1               0.0000000000
         8         1  LIG       C5              1.0474061372       20.3426235317        1.4972998746  LIG       1               0.0000000000
         9         1  LIG       C6             -0.2196395533       20.9582681930        1.2641841834  LIG       1               0.0000000000
        10         1  LIG       C7             -1.0557362452       20.4849102449        0.2432105538  LIG       1               0.0000000000
        11         1  LIG       C8             -0.6588188915       19.4034675817       -0.5492247557  LIG       1               0.0000000000
        12         1  LIG       C9              0.5591359932       18.7677282942       -0.3037174218  LIG       1               0.0000000000
        13         1  LIG       C10             1.3963667266       19.2210293208        0.7203196888  LIG       1               0.0000000000
        14         1  LIG       O3             10.6715472701       18.8842515743        5.7302866973  LIG       1               0.0000000000
        15         1  LIG       C11            10.7778212734       20.0782013108        4.9491354323  LIG       1               0.0000000000
        16         1  LIG       N1              8.4907467434       19.5834930547        4.3135458278  LIG       1               0.0000000000
        17         1  LIG       CA1             9.3707411324       20.6610479540        4.6701793578  LIG       1               0.0000000000
        18         1  LIG       CB1             8.8649258298       21.5144162137        5.8765246884  LIG       1               0.0000000000
        19         1  LIG       CG              7.6524200124       20.9621658965        6.5870552531  LIG       1               0.0000000000
        20         1  LIG       CD2             6.4447124792       21.6750971779        6.5562434672  LIG       1               0.0000000000
        21         1  LIG       CE2             5.3553555247       21.2381906346        7.3124613189  LIG       1               0.0000000000
        22         1  LIG       CZ              5.4072589793       20.0060771854        7.9778368378  LIG       1               0.0000000000
        23         1  LIG       CE1             6.6017803820       19.2784993661        8.0009303830  LIG       1               0.0000000000
        24         1  LIG       CD1             7.7345937288       19.7805297327        7.3471589765  LIG       1               0.0000000000
        25         1  LIG       N2              5.3978754570       18.7000739476        3.2633674755  LIG       1               0.0000000000
        26         1  LIG       CA2             6.7728546880       18.2798040718        3.2240242888  LIG       1               0.0000000000
        27         1  LIG       C12             7.6213452437       19.5371573673        3.2969672030  LIG       1               0.0000000000
        28         1  LIG       O4              7.4966628828       20.4623964739        2.4981159376  LIG       1               0.0000000000
        29         1  LIG       CB2             7.0825886666       17.4553134420        1.9698585758  LIG       1               0.0000000000
        30         1  LIG       CG1             6.5987811857       16.0047630512        2.1874180878  LIG       1               0.0000000000
        31         1  LIG       CG2             6.3998397693       18.0707878239        0.7270745671  LIG       1               0.0000000000
        32         1  LIG       C25             4.5898839289       18.6783592357        4.3312379836  LIG       1               0.0000000000
        33         1  LIG       O5              4.9506274297       18.1647605627        5.3820185305  LIG       1               0.0000000000
        34         1  LIG       C26             3.2092538340       19.2788571823        4.1382641769  LIG       1               0.0000000000
        35         1  LIG       C27             3.2353990271       20.2365557218        2.8734481009  LIG       1               0.0000000000
        36         1  LIG       C28             2.7632937379       20.0235782348        5.4338188469  LIG       1               0.0000000000
        37         1  LIG       C29            -0.5544472345       20.5819496750        5.9863382232  LIG       1               0.0000000000
        38         1  LIG       C30             0.0468216300       19.1579253025        5.9498385363  LIG       1               0.0000000000
        39         1  LIG       C31            -0.7890716995       18.1866790625        6.7934991432  LIG       1               0.0000000000
        40         1  LIG       C32             0.0669127192       18.6318205673        4.5130615821  LIG       1               0.0000000000
        41         1  LIG       H3             11.5547570270       18.5225054127        5.8415806946  LIG       1               0.0000000000
        42         1  LIG       H11             8.5401108607       18.8401341009        4.9724762500  LIG       1               0.0000000000
        43         1  LIG       H12             5.1013735340       19.1594878734        2.4347889855  LIG       1               0.0000000000
        44         1  LIG       H4             -1.6110958187       22.4812364609        1.9121949259  LIG       1               0.0000000000
        45         1  LIG       H5             -0.1110206588       23.3935564681        3.6391861346  LIG       1               0.0000000000
        46         1  LIG       H6              2.1460830432       22.4853351380        3.9223178564  LIG       1               0.0000000000
        47         1  LIG       H7             -2.0068460682       20.9602193704        0.0500115295  LIG       1               0.0000000000
        48         1  LIG       H8             -1.2958106513       19.0546972077       -1.3489532775  LIG       1               0.0000000000
        49         1  LIG       H9              0.8643039935       17.9262874179       -0.9098282796  LIG       1               0.0000000000
        50         1  LIG       H10             2.3162067568       18.6775478647        0.8564767306  LIG       1               0.0000000000
        51         1  LIG       H1             11.2606641103       19.8364524342        3.9759053539  LIG       1               0.0000000000
        52         1  LIG       H2             11.4025336680       20.8296645728        5.4788568063  LIG       1               0.0000000000
        53         1  LIG       HA1             9.4732331373       21.3601167412        3.8027975512  LIG       1               0.0000000000
        54         1  LIG       HB1             8.6284367298       22.5417794566        5.5241494551  LIG       1               0.0000000000
        55         1  LIG       HB2             9.6614351554       21.5977718527        6.6433840948  LIG       1               0.0000000000
        56         1  LIG       HD2             6.3545637052       22.5632648033        5.9490695696  LIG       1               0.0000000000
        57         1  LIG       HE2             4.4287790592       21.7949639062        7.2959654520  LIG       1               0.0000000000
        58         1  LIG       HZ              4.5143498492       19.5987998162        8.4348139879  LIG       1               0.0000000000
        59         1  LIG       HE1             6.6430345351       18.3320556976        8.5197380945  LIG       1               0.0000000000
        60         1  LIG       HD1             8.6665288417       19.2409391698        7.4004102786  LIG       1               0.0000000000
        61         1  LIG       HA2             7.0163134207       17.6604057018        4.1186303968  LIG       1               0.0000000000
        62         1  LIG       HB              8.1845894082       17.4197360495        1.8012055174  LIG       1               0.0000000000
        63         1  LIG       HG11            5.5027479142       15.9740960257        2.3637394668  LIG       1               0.0000000000
        64         1  LIG       HG12            7.1060472828       15.5449022011        3.0619058332  LIG       1               0.0000000000
        65         1  LIG       HG13            6.8248134191       15.3878952169        1.2914441120  LIG       1               0.0000000000
        66         1  LIG       HG21            6.6512405272       19.1464166705        0.6203917737  LIG       1               0.0000000000
        67         1  LIG       HG22            5.2961656033       17.9661591787        0.7838712143  LIG       1               0.0000000000
        68         1  LIG       HG23            6.7396738125       17.5491269119       -0.1915283151  LIG       1               0.0000000000
        69         1  LIG       H29             2.5689975291       18.4079413235        3.9383641812  LIG       1               0.0000000000
        70         1  LIG       H30             3.9656525296       21.0577875069        3.0422828770  LIG       1               0.0000000000
        71         1  LIG       H31             3.5890227783       19.6928434678        1.9808140914  LIG       1               0.0000000000
        72         1  LIG       H32             3.6351164989       20.3790945831        5.9701707124  LIG       1               0.0000000000
        73         1  LIG       H33             2.1714138214       20.9145557151        5.2312900904  LIG       1               0.0000000000
        74         1  LIG       H34             0.1700807648       21.3490742395        5.6518632939  LIG       1               0.0000000000
        75         1  LIG       H35            -0.8691284373       20.8422521993        7.0181190578  LIG       1               0.0000000000
        76         1  LIG       H36            -1.4377431804       20.6364948427        5.3171556049  LIG       1               0.0000000000
        77         1  LIG       H37            -0.8149859177       18.5071125980        7.8551601338  LIG       1               0.0000000000
        78         1  LIG       H38            -0.3427707813       17.1697312021        6.7390308590  LIG       1               0.0000000000
        79         1  LIG       H39            -1.8227571026       18.1409311490        6.3941961189  LIG       1               0.0000000000
        80         1  LIG       H40             0.5678572509       17.6399013274        4.4774389691  LIG       1               0.0000000000
        81         1  LIG       H41             0.6135594022       19.3333831603        3.8718428112  LIG       1               0.0000000000
        82         1  LIG       H42            -0.9548983863       18.5369062924        4.1002527141  LIG       1               0.0000000000
