* GENERATED BY CHARMM-GUI (HTTP://WWW.CHARMM-GUI.ORG)
*
        40  EXT
         1         1  LIG       S1              1.8240000000       19.3080000000        6.6300000000  LIG       1               0.0000000000
         2         1  LIG       O1              2.3760000000       17.9820000000        6.6190000000  LIG       1               0.0000000000
         3         1  LIG       O2              1.7240000000       19.9940000000        7.8760000000  LIG       1               0.0000000000
         4         1  LIG       C1             -0.6100000000       22.0420000000        2.1300000000  LIG       1               0.0000000000
         5         1  LIG       C2              0.1660000000       22.5100000000        3.1460000000  LIG       1               0.0000000000
         6         1  LIG       C3              1.4510000000       21.8960000000        3.4250000000  LIG       1               0.0000000000
         7         1  LIG       C4              1.8860000000       20.8610000000        2.6750000000  LIG       1               0.0000000000
         8         1  LIG       C5              1.0520000000       20.3130000000        1.5570000000  LIG       1               0.0000000000
         9         1  LIG       C6             -0.1780000000       20.9390000000        1.3160000000  LIG       1               0.0000000000
        10         1  LIG       C7             -1.0160000000       20.4780000000        0.2450000000  LIG       1               0.0000000000
        11         1  LIG       C8             -0.6120000000       19.4170000000       -0.5220000000  LIG       1               0.0000000000
        12         1  LIG       C9              0.6330000000       18.7760000000       -0.2720000000  LIG       1               0.0000000000
        13         1  LIG       C10             1.4540000000       19.2330000000        0.7620000000  LIG       1               0.0000000000
        14         1  LIG       O3             10.5250000000       18.8910000000        5.6680000000  LIG       1               0.0000000000
        15         1  LIG       C11            10.7960000000       20.1250000000        4.9080000000  LIG       1               0.0000000000
        16         1  LIG       N1              8.4890000000       19.6090000000        4.3450000000  LIG       1               0.0000000000
        17         1  LIG       CA1             9.3940000000       20.7360000000        4.6290000000  LIG       1               0.0000000000
        18         1  LIG       CB1             8.8390000000       21.4910000000        5.8600000000  LIG       1               0.0000000000
        19         1  LIG       CG              7.6020000000       20.9790000000        6.5680000000  LIG       1               0.0000000000
        20         1  LIG       CD2             6.3430000000       21.5780000000        6.4490000000  LIG       1               0.0000000000
        21         1  LIG       CE2             5.1940000000       21.0610000000        7.0610000000  LIG       1               0.0000000000
        22         1  LIG       CZ              5.3080000000       19.8990000000        7.8330000000  LIG       1               0.0000000000
        23         1  LIG       CE1             6.5440000000       19.2680000000        7.9470000000  LIG       1               0.0000000000
        24         1  LIG       CD1             7.6790000000       19.7990000000        7.3270000000  LIG       1               0.0000000000
        25         1  LIG       N2              5.3570000000       18.7700000000        3.2720000000  LIG       1               0.0000000000
        26         1  LIG       CA2             6.7560000000       18.2700000000        3.2180000000  LIG       1               0.0000000000
        27         1  LIG       C12             7.6120000000       19.5940000000        3.2760000000  LIG       1               0.0000000000
        28         1  LIG       O4              7.5800000000       20.4920000000        2.4500000000  LIG       1               0.0000000000
        29         1  LIG       CB2             7.0710000000       17.3990000000        1.9780000000  LIG       1               0.0000000000
        30         1  LIG       CG1             6.6020000000       15.9480000000        2.1800000000  LIG       1               0.0000000000
        31         1  LIG       CG2             6.3930000000       18.0850000000        0.7700000000  LIG       1               0.0000000000
        32         1  LIG       C25             4.5550000000       18.6780000000        4.3690000000  LIG       1               0.0000000000
        33         1  LIG       O5              4.9310000000       18.1940000000        5.4430000000  LIG       1               0.0000000000
        34         1  LIG       C26             3.1550000000       19.3100000000        4.2180000000  LIG       1               0.0000000000
        35         1  LIG       C27             3.2140000000       20.1150000000        2.8940000000  LIG       1               0.0000000000
        36         1  LIG       C28             2.7720000000       20.2240000000        5.4260000000  LIG       1               0.0000000000
        37         1  LIG       C29            -0.5260000000       20.6370000000        5.9520000000  LIG       1               0.0000000000
        38         1  LIG       C30             0.1130000000       19.2260000000        5.9540000000  LIG       1               0.0000000000
        39         1  LIG       C31            -0.7470000000       18.1940000000        6.7260000000  LIG       1               0.0000000000
        40         1  LIG       C32             0.2700000000       18.6910000000        4.5100000000  LIG       1               0.0000000000
