;;
;; Generated by CHARMM-GUI (http://www.charmm-gui.org) v1.7
;;
;; psf2itp_mol.py
;;
;; Correspondance:
;; jul316@lehigh.edu or wonpil@lehigh.edu
;;
;; GROMACS topology file for LIG
;;


[ moleculetype ]
; name	nrexcl
LIG	     3

[ atoms ]
; nr	type	resnr	residu	atom	cgnr	charge	mass
     1      CG311      1      LIG     C1      1      0.315    12.0110   ; qtot  0.315
     2      NG321      1      LIG     N1      2     -0.984    14.0070   ; qtot -0.669
     3      OG2D1      1      LIG     O1      3     -0.489    15.9994   ; qtot -1.158
     4      CG2O1      1      LIG     C2      4      0.433    12.0110   ; qtot -0.725
     5      NG2P1      1      LIG     N2      5     -0.707    14.0070   ; qtot -1.432
     6      OG2D1      1      LIG     O2      6     -0.510    15.9994   ; qtot -1.942
     7      CG321      1      LIG     C3      7     -0.215    12.0110   ; qtot -2.157
     8      NG2P1      1      LIG     N3      8     -0.749    14.0070   ; qtot -2.906
     9      OG2D1      1      LIG     O3      9     -0.489    15.9994   ; qtot -3.395
    10      CG321      1      LIG     C4     10     -0.185    12.0110   ; qtot -3.580
    11      NG2P1      1      LIG     N4     11     -0.749    14.0070   ; qtot -4.329
    12      OG2D1      1      LIG     O4     12     -0.509    15.9994   ; qtot -4.838
    13      CG324      1      LIG     C5     13      0.202    12.0110   ; qtot -4.636
    14      NG2S1      1      LIG     N5     14     -0.449    14.0070   ; qtot -5.085
    15      OG2D1      1      LIG     O5     15     -0.576    15.9994   ; qtot -5.661
    16      CG2N1      1      LIG     C6     16      0.652    12.0110   ; qtot -5.009
    17      NG2S1      1      LIG     N6     17     -0.441    14.0070   ; qtot -5.450
    18      OG311      1      LIG     O6     18     -0.600    15.9994   ; qtot -6.050
    19      CG311      1      LIG     C7     19      0.070    12.0110   ; qtot -5.980
    20      NG311      1      LIG     N7     20     -0.704    14.0070   ; qtot -6.684
    21      OG2D1      1      LIG     O7     21     -0.511    15.9994   ; qtot -7.195
    22      CG2O1      1      LIG     C8     22      0.538    12.0110   ; qtot -6.657
    23      NG2S1      1      LIG     N8     23     -0.464    14.0070   ; qtot -7.121
    24      OG2D1      1      LIG     O8     24     -0.537    15.9994   ; qtot -7.658
    25      CG311      1      LIG     C9     25     -0.078    12.0110   ; qtot -7.736
    26      NG2S1      1      LIG     N9     26     -0.514    14.0070   ; qtot -8.250
    27      CG331      1      LIG    C10     27     -0.269    12.0110   ; qtot -8.519
    28      NG2S1      1      LIG    N10     28     -0.447    14.0070   ; qtot -8.966
    29      CG331      1      LIG    C11     29     -0.269    12.0110   ; qtot -9.235
    30      NG2S2      1      LIG    N11     30     -0.677    14.0070   ; qtot -9.912
    31      CG311      1      LIG    C12     31     -0.076    12.0110   ; qtot -9.988
    32      CG321      1      LIG    C13     32      0.034    12.0110   ; qtot -9.954
    33      CG321      1      LIG    C14     33     -0.118    12.0110   ; qtot -10.072
    34      CG311      1      LIG    C15     34     -0.102    12.0110   ; qtot -10.174
    35      CG331      1      LIG    C16     35     -0.268    12.0110   ; qtot -10.442
    36      CG331      1      LIG    C17     36     -0.268    12.0110   ; qtot -10.710
    37      CG311      1      LIG    C18     37      0.218    12.0110   ; qtot -10.492
    38      CG2O1      1      LIG    C19     38      0.456    12.0110   ; qtot -10.036
    39      CG321      1      LIG    C20     39     -0.291    12.0110   ; qtot -10.327
    40     CG2R61      1      LIG    C21     40      0.018    12.0110   ; qtot -10.309
    41     CG2R61      1      LIG    C22     41     -0.123    12.0110   ; qtot -10.432
    42     CG2R61      1      LIG    C23     42     -0.123    12.0110   ; qtot -10.555
    43     CG2R61      1      LIG    C24     43     -0.112    12.0110   ; qtot -10.667
    44     CG2R61      1      LIG    C25     44     -0.112    12.0110   ; qtot -10.779
    45     CG2R61      1      LIG    C26     45     -0.116    12.0110   ; qtot -10.895
    46      CG311      1      LIG    C27     46      0.079    12.0110   ; qtot -10.816
    47      CG2O1      1      LIG    C28     47      0.514    12.0110   ; qtot -10.302
    48      CG321      1      LIG    C29     48     -0.185    12.0110   ; qtot -10.487
    49      CG321      1      LIG    C30     49     -0.190    12.0110   ; qtot -10.677
    50      CG2O2      1      LIG    C31     50      0.735    12.0110   ; qtot -9.942
    51      CG311      1      LIG    C32     51      0.078    12.0110   ; qtot -9.864
    52      CG2O1      1      LIG    C33     52      0.525    12.0110   ; qtot -9.339
    53      CG331      1      LIG    C34     53     -0.270    12.0110   ; qtot -9.609
    54      CG311      1      LIG    C35     54      0.059    12.0110   ; qtot -9.550
    55      CG2O1      1      LIG    C36     55      0.462    12.0110   ; qtot -9.088
    56      CG321      1      LIG    C37     56     -0.120    12.0110   ; qtot -9.208
    57      CG321      1      LIG    C38     57     -0.214    12.0110   ; qtot -9.422
    58      CG321      1      LIG    C39     58     -0.167    12.0110   ; qtot -9.589
    59      CG331      1      LIG    C40     59     -0.270    12.0110   ; qtot -9.859
    60       HGA3      1      LIG     H1     60      0.090     1.0080   ; qtot -9.769
    61       HGA2      1      LIG     H2     61      0.090     1.0080   ; qtot -9.679
    62       HGA1      1      LIG     H3     62      0.090     1.0080   ; qtot -9.589
    63       HGA3      1      LIG     H4     63      0.090     1.0080   ; qtot -9.499
    64       HGA2      1      LIG     H5     64      0.090     1.0080   ; qtot -9.409
    65       HGA1      1      LIG     H6     65      0.090     1.0080   ; qtot -9.319
    66       HGA2      1      LIG     H7     66      0.090     1.0080   ; qtot -9.229
    67       HGA2      1      LIG     H8     67      0.090     1.0080   ; qtot -9.139
    68      HGR61      1      LIG     H9     68      0.116     1.0080   ; qtot -9.023
    69      HGR61      1      LIG    H10     69      0.116     1.0080   ; qtot -8.907
    70       HGP1      1      LIG    H11     70      0.429     1.0080   ; qtot -8.478
    71       HGA3      1      LIG    H12     71      0.090     1.0080   ; qtot -8.388
    72       HGA2      1      LIG    H13     72      0.090     1.0080   ; qtot -8.298
    73       HGA3      1      LIG    H14     73      0.090     1.0080   ; qtot -8.208
    74       HGA3      1      LIG    H15     74      0.090     1.0080   ; qtot -8.118
    75       HGA2      1      LIG    H16     75      0.090     1.0080   ; qtot -8.028
    76       HGP1      1      LIG    H17     76      0.339     1.0080   ; qtot -7.689
    77       HGA3      1      LIG    H18     77      0.090     1.0080   ; qtot -7.599
    78      HGR61      1      LIG    H19     78      0.116     1.0080   ; qtot -7.483
    79       HGA3      1      LIG    H20     79      0.090     1.0080   ; qtot -7.393
    80       HGA3      1      LIG    H21     80      0.090     1.0080   ; qtot -7.303
    81       HGA3      1      LIG    H22     81      0.090     1.0080   ; qtot -7.213
    82       HGA1      1      LIG    H23     82      0.090     1.0080   ; qtot -7.123
    83       HGA3      1      LIG    H24     83      0.090     1.0080   ; qtot -7.033
    84       HGA2      1      LIG    H25     84      0.090     1.0080   ; qtot -6.943
    85       HGA2      1      LIG    H26     85      0.090     1.0080   ; qtot -6.853
    86       HGA1      1      LIG    H27     86      0.090     1.0080   ; qtot -6.763
    87       HGA2      1      LIG    H28     87      0.090     1.0080   ; qtot -6.673
    88       HGA2      1      LIG    H29     88      0.090     1.0080   ; qtot -6.583
    89       HGA2      1      LIG    H30     89      0.090     1.0080   ; qtot -6.493
    90       HGA2      1      LIG    H31     90      0.090     1.0080   ; qtot -6.403
    91       HGA2      1      LIG    H32     91      0.090     1.0080   ; qtot -6.313
    92       HGA2      1      LIG    H33     92      0.090     1.0080   ; qtot -6.223
    93       HGA3      1      LIG    H34     93      0.090     1.0080   ; qtot -6.133
    94       HGA2      1      LIG    H35     94      0.090     1.0080   ; qtot -6.043
    95      HGR61      1      LIG    H36     95      0.116     1.0080   ; qtot -5.927
    96       HGA2      1      LIG    H37     96      0.090     1.0080   ; qtot -5.837
    97       HGA1      1      LIG    H38     97      0.090     1.0080   ; qtot -5.747
    98       HGA2      1      LIG    H39     98      0.090     1.0080   ; qtot -5.657
    99       HGA2      1      LIG    H40     99      0.090     1.0080   ; qtot -5.567
   100       HGA2      1      LIG    H41    100      0.090     1.0080   ; qtot -5.477
   101      HGR61      1      LIG    H42    101      0.116     1.0080   ; qtot -5.361
   102       HGA3      1      LIG    H43    102      0.090     1.0080   ; qtot -5.271
   103       HGA2      1      LIG    H44    103      0.090     1.0080   ; qtot -5.181
   104       HGA1      1      LIG    H45    104      0.090     1.0080   ; qtot -5.091
   105       HGA1      1      LIG    H46    105      0.090     1.0080   ; qtot -5.001
   106       HGA3      1      LIG    H47    106      0.090     1.0080   ; qtot -4.911
   107       HGA3      1      LIG    H48    107      0.090     1.0080   ; qtot -4.821
   108       HGA1      1      LIG    H49    108      0.090     1.0080   ; qtot -4.731
   109       HGA2      1      LIG    H50    109      0.090     1.0080   ; qtot -4.641
   110       HGA3      1      LIG    H51    110      0.090     1.0080   ; qtot -4.551
   111       HGA3      1      LIG    H52    111      0.090     1.0080   ; qtot -4.461
   112       HGP1      1      LIG    H53    112      0.339     1.0080   ; qtot -4.122
   113       HGA2      1      LIG    H54    113      0.090     1.0080   ; qtot -4.032
   114       HGA3      1      LIG    H55    114      0.090     1.0080   ; qtot -3.942
   115       HGA1      1      LIG    H56    115      0.090     1.0080   ; qtot -3.852
   116       HGA3      1      LIG    H57    116      0.090     1.0080   ; qtot -3.762
   117     HGPAM2      1      LIG    H58    117      0.368     1.0080   ; qtot -3.394
   118     HGPAM2      1      LIG    H59    118      0.368     1.0080   ; qtot -3.026
   119       HGP2      1      LIG    H60    119      0.431     1.0080   ; qtot -2.595
   120       HGP2      1      LIG    H61    120      0.424     1.0080   ; qtot -2.171
   121       HGP2      1      LIG    H62    121      0.424     1.0080   ; qtot -1.747
   122       HGP2      1      LIG    H63    122      0.424     1.0080   ; qtot -1.323
   123       HGP2      1      LIG    H64    123      0.424     1.0080   ; qtot -0.899
   124       HGP1      1      LIG    H65    124      0.269     1.0080   ; qtot -0.630
   125       HGP1      1      LIG    H66    125      0.316     1.0080   ; qtot -0.314
   126     HGPAM1      1      LIG    H67    126      0.366     1.0080   ; qtot  0.052
   127       HGP1      1      LIG    H68    127      0.316     1.0080   ; qtot  0.368
   128       HGP1      1      LIG    H69    128      0.316     1.0080   ; qtot  0.684
   129       HGP1      1      LIG    H70    129      0.316     1.0080   ; qtot  1.000

[ bonds ]
; ai	aj	funct	b0	Kb
    1     2     1
    1     4     1
    1     7     1
    1    82     1
    2   117     1
    2   118     1
    3     4     1
    4    14     1
    5    13     1
    5    16     1
    5   119     1
    6    22     1
    7    10     1
    7    87     1
    7    94     1
    8    16     1
    8   120     1
    8   121     1
    9    38     1
   10    13     1
   10    89     1
   10    98     1
   11    16     1
   11   122     1
   11   123     1
   12    47     1
   13    75     1
   13    85     1
   14    19     1
   14   124     1
   15    50     1
   17    22     1
   17    31     1
   17   125     1
   18    50     1
   18    70     1
   19    22     1
   19    25     1
   19    62     1
   20    32     1
   20    37     1
   20   126     1
   21    52     1
   23    38     1
   23    46     1
   23   127     1
   24    55     1
   25    27     1
   25    29     1
   25   104     1
   26    47     1
   26    51     1
   26   128     1
   27    79     1
   27    80     1
   27   110     1
   28    52     1
   28    54     1
   28   129     1
   29    63     1
   29    83     1
   29   107     1
   30    55     1
   30    76     1
   30   112     1
   31    32     1
   31    33     1
   31    86     1
   32    64     1
   32    99     1
   33    34     1
   33    61     1
   33    66     1
   34    35     1
   34    36     1
   34   115     1
   35    60     1
   35    93     1
   35   106     1
   36    73     1
   36    74     1
   36   102     1
   37    38     1
   37    39     1
   37    97     1
   39    40     1
   39    67     1
   39    92     1
   40    41     1
   40    42     1
   41    43     1
   41    95     1
   42    44     1
   42   101     1
   43    45     1
   43    68     1
   44    45     1
   44    69     1
   45    78     1
   46    47     1
   46    48     1
   46   105     1
   48    49     1
   48    84     1
   48   100     1
   49    50     1
   49   103     1
   49   109     1
   51    52     1
   51    53     1
   51    65     1
   53    71     1
   53   111     1
   53   116     1
   54    55     1
   54    56     1
   54   108     1
   56    57     1
   56    88     1
   56   113     1
   57    58     1
   57    90     1
   57    96     1
   58    59     1
   58    72     1
   58    91     1
   59    77     1
   59    81     1
   59   114     1

[ pairs ]
; ai	aj	funct	c6	c12
    1    13     1 
    1    19     1 
    1    89     1 
    1    98     1 
    1   124     1 
    2     3     1 
    2    10     1 
    2    14     1 
    2    87     1 
    2    94     1 
    3     7     1 
    3    19     1 
    3    82     1 
    3   124     1 
    4    10     1 
    4    22     1 
    4    25     1 
    4    62     1 
    4    87     1 
    4    94     1 
    4   117     1 
    4   118     1 
    5     7     1 
    5    89     1 
    5    98     1 
    5   120     1 
    5   121     1 
    5   122     1 
    5   123     1 
    6    14     1 
    6    25     1 
    6    31     1 
    6    62     1 
    6   125     1 
    7    14     1 
    7    75     1 
    7    85     1 
    7   117     1 
    7   118     1 
    8    13     1 
    8   119     1 
    8   122     1 
    8   123     1 
    9    20     1 
    9    39     1 
    9    46     1 
    9    97     1 
    9   127     1 
   10    16     1 
   10    82     1 
   10   119     1 
   11    13     1 
   11   119     1 
   11   120     1 
   11   121     1 
   12    23     1 
   12    48     1 
   12    51     1 
   12   105     1 
   12   128     1 
   13    87     1 
   13    94     1 
   14    17     1 
   14    27     1 
   14    29     1 
   14    82     1 
   14   104     1 
   15    48     1 
   15    70     1 
   15   103     1 
   15   109     1 
   16    75     1 
   16    85     1 
   17    20     1 
   17    25     1 
   17    34     1 
   17    61     1 
   17    62     1 
   17    64     1 
   17    66     1 
   17    99     1 
   18    48     1 
   18   103     1 
   18   109     1 
   19    31     1 
   19    63     1 
   19    79     1 
   19    80     1 
   19    83     1 
   19   107     1 
   19   110     1 
   19   125     1 
   20    23     1 
   20    33     1 
   20    40     1 
   20    67     1 
   20    86     1 
   20    92     1 
   21    26     1 
   21    53     1 
   21    54     1 
   21    65     1 
   21   129     1 
   22    27     1 
   22    29     1 
   22    32     1 
   22    33     1 
   22    86     1 
   22   104     1 
   22   124     1 
   23    26     1 
   23    39     1 
   23    49     1 
   23    84     1 
   23    97     1 
   23   100     1 
   24    28     1 
   24    56     1 
   24    76     1 
   24   108     1 
   24   112     1 
   25   124     1 
   26    28     1 
   26    48     1 
   26    71     1 
   26   105     1 
   26   111     1 
   26   116     1 
   27    62     1 
   27    63     1 
   27    83     1 
   27   107     1 
   28    30     1 
   28    53     1 
   28    57     1 
   28    65     1 
   28    88     1 
   28   113     1 
   29    62     1 
   29    79     1 
   29    80     1 
   29   110     1 
   30    56     1 
   30   108     1 
   31    35     1 
   31    36     1 
   31    37     1 
   31   115     1 
   31   126     1 
   32    34     1 
   32    38     1 
   32    39     1 
   32    61     1 
   32    66     1 
   32    97     1 
   32   125     1 
   33    60     1 
   33    64     1 
   33    73     1 
   33    74     1 
   33    93     1 
   33    99     1 
   33   102     1 
   33   106     1 
   33   125     1 
   34    86     1 
   35    61     1 
   35    66     1 
   35    73     1 
   35    74     1 
   35   102     1 
   36    60     1 
   36    61     1 
   36    66     1 
   36    93     1 
   36   106     1 
   37    41     1 
   37    42     1 
   37    46     1 
   37    64     1 
   37    99     1 
   37   127     1 
   38    40     1 
   38    47     1 
   38    48     1 
   38    67     1 
   38    92     1 
   38   105     1 
   38   126     1 
   39    43     1 
   39    44     1 
   39    95     1 
   39   101     1 
   39   126     1 
   40    45     1 
   40    68     1 
   40    69     1 
   40    97     1 
   41    44     1 
   41    67     1 
   41    78     1 
   41    92     1 
   41   101     1 
   42    43     1 
   42    67     1 
   42    78     1 
   42    92     1 
   42    95     1 
   43    69     1 
   44    68     1 
   45    95     1 
   45   101     1 
   46    50     1 
   46    51     1 
   46   103     1 
   46   109     1 
   46   128     1 
   47    49     1 
   47    52     1 
   47    53     1 
   47    65     1 
   47    84     1 
   47   100     1 
   47   127     1 
   48   127     1 
   49    70     1 
   49   105     1 
   50    84     1 
   50   100     1 
   51    54     1 
   51   129     1 
   52    55     1 
   52    56     1 
   52    71     1 
   52   108     1 
   52   111     1 
   52   116     1 
   52   128     1 
   53   128     1 
   54    58     1 
   54    76     1 
   54    90     1 
   54    96     1 
   54   112     1 
   55    57     1 
   55    88     1 
   55   113     1 
   55   129     1 
   56    59     1 
   56    72     1 
   56    91     1 
   56   129     1 
   57    77     1 
   57    81     1 
   57   108     1 
   57   114     1 
   58    88     1 
   58   113     1 
   59    90     1 
   59    96     1 
   60   115     1 
   61    86     1 
   61   115     1 
   62   104     1 
   62   124     1 
   63   104     1 
   64    86     1 
   64   126     1 
   65    71     1 
   65   111     1 
   65   116     1 
   65   128     1 
   66    86     1 
   66   115     1 
   67    97     1 
   68    78     1 
   68    95     1 
   69    78     1 
   69   101     1 
   72    77     1 
   72    81     1 
   72    90     1 
   72    96     1 
   72   114     1 
   73   115     1 
   74   115     1 
   75    89     1 
   75    98     1 
   75   119     1 
   77    91     1 
   79   104     1 
   80   104     1 
   81    91     1 
   82    87     1 
   82    94     1 
   82   117     1 
   82   118     1 
   83   104     1 
   84   103     1 
   84   105     1 
   84   109     1 
   85    89     1 
   85    98     1 
   85   119     1 
   86    99     1 
   86   125     1 
   87    89     1 
   87    98     1 
   88    90     1 
   88    96     1 
   88   108     1 
   89    94     1 
   90    91     1 
   90   113     1 
   91    96     1 
   91   114     1 
   92    97     1 
   93   115     1 
   94    98     1 
   96   113     1 
   97   126     1 
   99   126     1 
  100   103     1 
  100   105     1 
  100   109     1 
  102   115     1 
  104   107     1 
  104   110     1 
  105   127     1 
  106   115     1 
  108   113     1 
  108   129     1 

[ angles ] 
; ai	aj	ak	funct	th0	cth	S0	Kub
    2     1     4     5
    2     1     7     5
    2     1    82     5
    4     1     7     5
    4     1    82     5
    7     1    82     5
    1     2   117     5
    1     2   118     5
  117     2   118     5
    1     4     3     5
    1     4    14     5
    3     4    14     5
   13     5    16     5
   13     5   119     5
   16     5   119     5
    1     7    10     5
    1     7    87     5
    1     7    94     5
   10     7    87     5
   10     7    94     5
   87     7    94     5
   16     8   120     5
   16     8   121     5
  120     8   121     5
    7    10    13     5
    7    10    89     5
    7    10    98     5
   13    10    89     5
   13    10    98     5
   89    10    98     5
   16    11   122     5
   16    11   123     5
  122    11   123     5
    5    13    10     5
    5    13    75     5
    5    13    85     5
   10    13    75     5
   10    13    85     5
   75    13    85     5
    4    14    19     5
    4    14   124     5
   19    14   124     5
    5    16     8     5
    5    16    11     5
    8    16    11     5
   22    17    31     5
   22    17   125     5
   31    17   125     5
   50    18    70     5
   14    19    22     5
   14    19    25     5
   14    19    62     5
   22    19    25     5
   22    19    62     5
   25    19    62     5
   32    20    37     5
   32    20   126     5
   37    20   126     5
    6    22    17     5
    6    22    19     5
   17    22    19     5
   38    23    46     5
   38    23   127     5
   46    23   127     5
   19    25    27     5
   19    25    29     5
   19    25   104     5
   27    25    29     5
   27    25   104     5
   29    25   104     5
   47    26    51     5
   47    26   128     5
   51    26   128     5
   25    27    79     5
   25    27    80     5
   25    27   110     5
   79    27    80     5
   79    27   110     5
   80    27   110     5
   52    28    54     5
   52    28   129     5
   54    28   129     5
   25    29    63     5
   25    29    83     5
   25    29   107     5
   63    29    83     5
   63    29   107     5
   83    29   107     5
   55    30    76     5
   55    30   112     5
   76    30   112     5
   17    31    32     5
   17    31    33     5
   17    31    86     5
   32    31    33     5
   32    31    86     5
   33    31    86     5
   20    32    31     5
   20    32    64     5
   20    32    99     5
   31    32    64     5
   31    32    99     5
   64    32    99     5
   31    33    34     5
   31    33    61     5
   31    33    66     5
   34    33    61     5
   34    33    66     5
   61    33    66     5
   33    34    35     5
   33    34    36     5
   33    34   115     5
   35    34    36     5
   35    34   115     5
   36    34   115     5
   34    35    60     5
   34    35    93     5
   34    35   106     5
   60    35    93     5
   60    35   106     5
   93    35   106     5
   34    36    73     5
   34    36    74     5
   34    36   102     5
   73    36    74     5
   73    36   102     5
   74    36   102     5
   20    37    38     5
   20    37    39     5
   20    37    97     5
   38    37    39     5
   38    37    97     5
   39    37    97     5
    9    38    23     5
    9    38    37     5
   23    38    37     5
   37    39    40     5
   37    39    67     5
   37    39    92     5
   40    39    67     5
   40    39    92     5
   67    39    92     5
   39    40    41     5
   39    40    42     5
   41    40    42     5
   40    41    43     5
   40    41    95     5
   43    41    95     5
   40    42    44     5
   40    42   101     5
   44    42   101     5
   41    43    45     5
   41    43    68     5
   45    43    68     5
   42    44    45     5
   42    44    69     5
   45    44    69     5
   43    45    44     5
   43    45    78     5
   44    45    78     5
   23    46    47     5
   23    46    48     5
   23    46   105     5
   47    46    48     5
   47    46   105     5
   48    46   105     5
   12    47    26     5
   12    47    46     5
   26    47    46     5
   46    48    49     5
   46    48    84     5
   46    48   100     5
   49    48    84     5
   49    48   100     5
   84    48   100     5
   48    49    50     5
   48    49   103     5
   48    49   109     5
   50    49   103     5
   50    49   109     5
  103    49   109     5
   15    50    18     5
   15    50    49     5
   18    50    49     5
   26    51    52     5
   26    51    53     5
   26    51    65     5
   52    51    53     5
   52    51    65     5
   53    51    65     5
   21    52    28     5
   21    52    51     5
   28    52    51     5
   51    53    71     5
   51    53   111     5
   51    53   116     5
   71    53   111     5
   71    53   116     5
  111    53   116     5
   28    54    55     5
   28    54    56     5
   28    54   108     5
   55    54    56     5
   55    54   108     5
   56    54   108     5
   24    55    30     5
   24    55    54     5
   30    55    54     5
   54    56    57     5
   54    56    88     5
   54    56   113     5
   57    56    88     5
   57    56   113     5
   88    56   113     5
   56    57    58     5
   56    57    90     5
   56    57    96     5
   58    57    90     5
   58    57    96     5
   90    57    96     5
   57    58    59     5
   57    58    72     5
   57    58    91     5
   59    58    72     5
   59    58    91     5
   72    58    91     5
   58    59    77     5
   58    59    81     5
   58    59   114     5
   77    59    81     5
   77    59   114     5
   81    59   114     5

[ dihedrals ]
; ai	aj	ak	al	funct	phi0	cp	mult
    4     1     2   117     9
    4     1     2   118     9
    7     1     2   117     9
    7     1     2   118     9
   82     1     2   117     9
   82     1     2   118     9
    2     1     4     3     9
    2     1     4    14     9
    7     1     4    14     9
    2     1     7    10     9
    2     1     7    87     9
    2     1     7    94     9
    4     1     7    10     9
    4     1     7    87     9
    4     1     7    94     9
   82     1     7    87     9
   82     1     7    94     9
    3     4     1     7     9
    3     4     1    82     9
   14     4     1    82     9
    1     4    14    19     9
    1     4    14   124     9
    3     4    14    19     9
    3     4    14   124     9
   16     5    13    75     9
   16     5    13    85     9
   10     7     1    82     9
    1     7    10    13     9
    1     7    10    89     9
    1     7    10    98     9
   87     7    10    89     9
   87     7    10    98     9
   94     7    10    98     9
   13    10     7    87     9
   13    10     7    94     9
   89    10     7    94     9
    7    10    13    75     9
    7    10    13    85     9
   10    13     5    16     9
   10    13     5   119     9
   75    13     5   119     9
   85    13     5   119     9
    5    13    10     7     9
    5    13    10    89     9
    5    13    10    98     9
   75    13    10    89     9
   75    13    10    98     9
   85    13    10    89     9
   85    13    10    98     9
    4    14    19    22     9
    4    14    19    25     9
    4    14    19    62     9
    8    16     5    13     9
    8    16     5   119     9
   11    16     5    13     9
   11    16     5   119     9
    5    16     8   120     9
    5    16     8   121     9
   11    16     8   120     9
   11    16     8   121     9
    5    16    11   122     9
    5    16    11   123     9
    8    16    11   122     9
    8    16    11   123     9
   22    17    31    32     9
   22    17    31    33     9
   22    17    31    86     9
   22    19    14   124     9
   25    19    14   124     9
   62    19    14   124     9
   14    19    22    17     9
   14    19    25    27     9
   14    19    25    29     9
   14    19    25   104     9
   22    19    25    27     9
   22    19    25    29     9
   22    19    25   104     9
   62    19    25   104     9
   37    20    32    64     9
   37    20    32    99     9
   32    20    37    38     9
   32    20    37    39     9
   32    20    37    97     9
    6    22    17    31     9
    6    22    17   125     9
   19    22    17    31     9
   19    22    17   125     9
    6    22    19    14     9
    6    22    19    25     9
    6    22    19    62     9
   17    22    19    25     9
   17    22    19    62     9
   38    23    46    47     9
   38    23    46    48     9
   38    23    46   105     9
   27    25    19    62     9
   29    25    19    62     9
   19    25    27    79     9
   19    25    27    80     9
   19    25    27   110     9
   29    25    27    79     9
   29    25    27    80     9
   29    25    27   110     9
  104    25    27   110     9
   19    25    29    63     9
   19    25    29    83     9
   19    25    29   107     9
   27    25    29    63     9
   27    25    29    83     9
   27    25    29   107     9
  104    25    29   107     9
   47    26    51    52     9
   47    26    51    53     9
   47    26    51    65     9
   79    27    25   104     9
   80    27    25   104     9
   52    28    54    55     9
   52    28    54    56     9
   52    28    54   108     9
   63    29    25   104     9
   83    29    25   104     9
   32    31    17   125     9
   33    31    17   125     9
   86    31    17   125     9
   17    31    32    20     9
   17    31    32    64     9
   17    31    32    99     9
   33    31    32    64     9
   33    31    32    99     9
   86    31    32    99     9
   17    31    33    34     9
   17    31    33    61     9
   17    31    33    66     9
   32    31    33    34     9
   32    31    33    61     9
   32    31    33    66     9
   31    32    20    37     9
   31    32    20   126     9
   64    32    20   126     9
   99    32    20   126     9
   20    32    31    33     9
   20    32    31    86     9
   64    32    31    86     9
   34    33    31    86     9
   61    33    31    86     9
   66    33    31    86     9
   31    33    34    35     9
   31    33    34    36     9
   31    33    34   115     9
   61    33    34   115     9
   66    33    34   115     9
   35    34    33    61     9
   35    34    33    66     9
   36    34    33    61     9
   36    34    33    66     9
   33    34    35    60     9
   33    34    35    93     9
   33    34    35   106     9
   36    34    35    60     9
   36    34    35    93     9
   36    34    35   106     9
   33    34    36    73     9
   33    34    36    74     9
   33    34    36   102     9
   35    34    36    73     9
   35    34    36    74     9
   35    34    36   102     9
   60    35    34   115     9
   93    35    34   115     9
  106    35    34   115     9
   73    36    34   115     9
   74    36    34   115     9
  102    36    34   115     9
   38    37    20   126     9
   39    37    20   126     9
   97    37    20   126     9
   20    37    38    23     9
   20    37    39    40     9
   20    37    39    67     9
   20    37    39    92     9
   38    37    39    40     9
   38    37    39    67     9
   38    37    39    92     9
    9    38    23    46     9
    9    38    23   127     9
   37    38    23    46     9
   37    38    23   127     9
    9    38    37    20     9
    9    38    37    39     9
    9    38    37    97     9
   23    38    37    39     9
   23    38    37    97     9
   40    39    37    97     9
   67    39    37    97     9
   92    39    37    97     9
   37    39    40    41     9
   37    39    40    42     9
   41    40    39    67     9
   41    40    39    92     9
   42    40    39    67     9
   42    40    39    92     9
   39    40    41    43     9
   39    40    41    95     9
   42    40    41    43     9
   42    40    41    95     9
   39    40    42    44     9
   39    40    42   101     9
   41    40    42    44     9
   41    40    42   101     9
   40    41    43    45     9
   40    41    43    68     9
   40    42    44    45     9
   40    42    44    69     9
   45    43    41    95     9
   68    43    41    95     9
   41    43    45    44     9
   41    43    45    78     9
   68    43    45    78     9
   45    44    42   101     9
   69    44    42   101     9
   42    44    45    43     9
   42    44    45    78     9
   69    44    45    78     9
   44    45    43    68     9
   43    45    44    69     9
   47    46    23   127     9
   48    46    23   127     9
  105    46    23   127     9
   23    46    47    26     9
   23    46    48    49     9
   23    46    48    84     9
   23    46    48   100     9
   47    46    48    49     9
   47    46    48    84     9
   47    46    48   100     9
   12    47    26    51     9
   12    47    26   128     9
   46    47    26    51     9
   46    47    26   128     9
   12    47    46    23     9
   12    47    46    48     9
   12    47    46   105     9
   26    47    46    48     9
   26    47    46   105     9
   49    48    46   105     9
   84    48    46   105     9
  100    48    46   105     9
   46    48    49    50     9
   46    48    49   103     9
   46    48    49   109     9
   84    48    49   103     9
   84    48    49   109     9
  100    48    49   103     9
  100    48    49   109     9
   50    49    48    84     9
   50    49    48   100     9
   15    50    18    70     9
   49    50    18    70     9
   15    50    49    48     9
   15    50    49   103     9
   15    50    49   109     9
   18    50    49    48     9
   18    50    49   103     9
   18    50    49   109     9
   52    51    26   128     9
   53    51    26   128     9
   65    51    26   128     9
   26    51    52    28     9
   26    51    53    71     9
   26    51    53   111     9
   26    51    53   116     9
   52    51    53    71     9
   52    51    53   111     9
   52    51    53   116     9
   65    51    53    71     9
   65    51    53   111     9
   65    51    53   116     9
   21    52    28    54     9
   21    52    28   129     9
   51    52    28    54     9
   51    52    28   129     9
   21    52    51    26     9
   21    52    51    53     9
   21    52    51    65     9
   28    52    51    53     9
   28    52    51    65     9
   55    54    28   129     9
   56    54    28   129     9
  108    54    28   129     9
   28    54    55    30     9
   28    54    56    57     9
   28    54    56    88     9
   28    54    56   113     9
   55    54    56    57     9
   55    54    56    88     9
   55    54    56   113     9
  108    54    56   113     9
   24    55    30    76     9
   24    55    30   112     9
   54    55    30    76     9
   54    55    30   112     9
   24    55    54    28     9
   24    55    54    56     9
   24    55    54   108     9
   30    55    54    56     9
   30    55    54   108     9
   57    56    54   108     9
   88    56    54   108     9
   54    56    57    58     9
   54    56    57    90     9
   54    56    57    96     9
   88    56    57    90     9
   88    56    57    96     9
   58    57    56    88     9
   58    57    56   113     9
   90    57    56   113     9
   96    57    56   113     9
   56    57    58    59     9
   56    57    58    72     9
   56    57    58    91     9
   90    57    58    91     9
   59    58    57    90     9
   59    58    57    96     9
   72    58    57    90     9
   72    58    57    96     9
   91    58    57    96     9
   57    58    59    77     9
   57    58    59    81     9
   57    58    59   114     9
   72    58    59    77     9
   72    58    59    81     9
   72    58    59   114     9
   91    58    59   114     9
   77    59    58    91     9
   81    59    58    91     9

[ dihedrals ]
; ai	aj	ak	al	funct	q0	cq
    4     1    14     3     2
   16     5     8    11     2
   22    19    17     6     2
   38    37    23     9     2
   47    46    26    12     2
   50    49    15    18     2
   52    51    28    21     2
   55    54    30    24     2
