        75  EXT
         1         1  0Q4       N             -12.1570000000       14.4210000000       31.7070000000  HETA      125            21.2700000000
         2         1  0Q4       CA            -11.4020000000       15.2090000000       32.7300000000  HETA      125            21.7600000000
         3         1  0Q4       CA1            -7.5900000000       15.8060000000       33.0270000000  HETA      125            18.9000000000
         4         1  0Q4       CA2            -4.7960000000       17.6500000000       34.8460000000  HETA      125            17.9600000000
         5         1  0Q4       CA3            -1.1950000000       17.2470000000       36.0270000000  HETA      125            16.8900000000
         6         1  0Q4       CA4            -0.7990000000       15.6310000000       32.5500000000  HETA      125            15.8100000000
         7         1  0Q4       CA5             2.6160000000       16.5810000000       31.2280000000  HETA      125            21.8200000000
         8         1  0Q4       CA6             5.7040000000       16.8510000000       33.4670000000  HETA      125            31.0900000000
         9         1  0Q4       C              -9.8710000000       15.0340000000       32.4760000000  HETA      125            21.8900000000
        10         1  0Q4       O              -9.4650000000       14.2480000000       31.5990000000  HETA      125            22.4800000000
        11         1  0Q4       CB            -11.8320000000       14.7540000000       34.1300000000  HETA      125            21.8000000000
        12         1  0Q4       CB1            -7.2020000000       16.1110000000       31.4900000000  HETA      125            19.2800000000
        13         1  0Q4       CB2            -5.3220000000       17.4130000000       36.2830000000  HETA      125            19.3200000000
        14         1  0Q4       CB3            -0.9570000000       16.0730000000       37.0240000000  HETA      125            18.2200000000
        15         1  0Q4       CB4            -1.4500000000       16.5920000000       31.5170000000  HETA      125            17.0700000000
        16         1  0Q4       CB5             2.8010000000       17.3870000000       29.9570000000  HETA      125            22.2400000000
        17         1  0Q4       CB6             5.0520000000       17.2430000000       34.8180000000  HETA      125            32.5500000000
        18         1  0Q4       CG            -13.1320000000       13.8850000000       34.2240000000  HETA      125            26.6900000000
        19         1  0Q4       CG1            -7.1860000000       17.6130000000       31.1950000000  HETA      125            20.0800000000
        20         1  0Q4       CG2            -5.8030000000       15.5540000000       31.1590000000  HETA      125            19.5400000000
        21         1  0Q4       CG3            -5.3100000000       15.9330000000       36.7570000000  HETA      125            21.1200000000
        22         1  0Q4       CG4             0.4510000000       15.8480000000       37.4110000000  HETA      125            21.5900000000
        23         1  0Q4       CG5            -1.2390000000       16.2820000000       30.0480000000  HETA      125            18.5000000000
        24         1  0Q4       CG6             6.0050000000       17.6840000000       35.9840000000  HETA      125            32.7300000000
        25         1  0Q4       CD            -14.3600000000       14.5570000000       34.9340000000  HETA      125            29.7600000000
        26         1  0Q4       CD1             0.9210000000       16.2640000000       38.6490000000  HETA      125            22.9900000000
        27         1  0Q4       CD1            -4.8450000000       14.9600000000       35.6740000000  HETA      125            21.2200000000
        28         1  0Q4       CD2             1.3230000000       15.1870000000       36.5510000000  HETA      125            24.6500000000
        29         1  0Q4       CD2            -4.4330000000       15.7890000000       37.9870000000  HETA      125            17.4700000000
        30         1  0Q4       CD3            -2.3800000000       15.4550000000       29.4360000000  HETA      125            26.6800000000
        31         1  0Q4       CD4             5.7670000000       16.9280000000       37.3500000000  HETA      125            31.5900000000
        32         1  0Q4       CE              5.6370000000       17.9070000000       38.4980000000  HETA      125            23.2900000000
        33         1  0Q4       CE1             2.2550000000       16.0130000000       39.0450000000  HETA      125            24.0000000000
        34         1  0Q4       CE2             2.6740000000       14.9290000000       36.9330000000  HETA      125            27.2700000000
        35         1  0Q4       NE            -14.0900000000       15.8800000000       35.5120000000  HETA      125            32.2600000000
        36         1  0Q4       OE1            -2.8420000000       15.8000000000       28.3330000000  HETA      125            29.7100000000
        37         1  0Q4       OE2            -2.8270000000       14.4470000000       30.0460000000  HETA      125            31.3500000000
        38         1  0Q4       CZ            -14.0830000000       16.1520000000       36.8200000000  HETA      125            34.7200000000
        39         1  0Q4       CZ1             3.1310000000       15.3430000000       38.1840000000  HETA      125            25.6400000000
        40         1  0Q4       NH1           -14.3160000000       15.1800000000       37.6860000000  HETA      125            35.0700000000
        41         1  0Q4       NH2           -13.9670000000       17.4140000000       37.2580000000  HETA      125            35.8600000000
        42         1  0Q4       C1             -6.8820000000       16.7290000000       34.0530000000  HETA      125            17.1400000000
        43         1  0Q4       N1             -9.0450000000       15.8140000000       33.1920000000  HETA      125            19.1000000000
        44         1  0Q4       O1             -7.4980000000       17.3830000000       34.8850000000  HETA      125            18.8700000000
        45         1  0Q4       C2             -3.2830000000       17.5060000000       34.7570000000  HETA      125            17.5600000000
        46         1  0Q4       N2             -5.5770000000       16.8660000000       33.9070000000  HETA      125            17.7800000000
        47         1  0Q4       O2              0.2400000000       17.7060000000       34.1310000000  HETA      125            12.5100000000
        48         1  0Q4       C3             -0.6890000000       17.0260000000       34.5740000000  HETA      125            15.0600000000
        49         1  0Q4       N3             -2.6460000000       17.4290000000       35.9120000000  HETA      125            16.6400000000
        50         1  0Q4       O3              1.4460000000       14.8150000000       32.9550000000  HETA      125            17.5000000000
        51         1  0Q4       C4              0.7160000000       15.5820000000       32.3240000000  HETA      125            17.5200000000
        52         1  0Q4       N4             -1.2280000000       16.0100000000       33.8990000000  HETA      125            14.5400000000
        53         1  0Q4       O4              3.2750000000       18.1960000000       32.9310000000  HETA      125            20.8800000000
        54         1  0Q4       C5              3.5400000000       17.1510000000       32.3340000000  HETA      125            24.0900000000
        55         1  0Q4       N5              1.2020000000       16.5210000000       31.5290000000  HETA      125            19.6100000000
        56         1  0Q4       O5              6.3530000000       14.7800000000       34.5740000000  HETA      125            34.6000000000
        57         1  0Q4       C6              6.5970000000       15.6130000000       33.6530000000  HETA      125            33.7800000000
        58         1  0Q4       N6              4.6540000000       16.4550000000       32.5370000000  HETA      125            27.6600000000
        59         1  0Q4       N7              7.5760000000       15.5100000000       32.8720000000  HETA      125            36.5300000000
        60         1  0Q4       H             -12.5520000000       13.5620000000       32.1130000000  HETA      125            15.0000000000
        61         1  0Q4       HN2            -5.1150000000       16.3990000000       33.1750000000  HETA      125            15.0000000000
        62         1  0Q4       HN3           -11.5380000000       14.1640000000       30.9230000000  HETA      125            15.0000000000
        63         1  0Q4       HE            -13.9010000000       16.6270000000       34.9020000000  HETA      125            15.0000000000
        64         1  0Q4       HH11          -14.4900000000       14.2510000000       37.3640000000  HETA      125            15.0000000000
        65         1  0Q4       HH12          -14.3130000000       15.3730000000       38.6690000000  HETA      125            15.0000000000
        66         1  0Q4       HH21          -13.8810000000       18.1700000000       36.6110000000  HETA      125            15.0000000000
        67         1  0Q4       HH22          -13.9660000000       17.5940000000       38.2440000000  HETA      125            15.0000000000
        68         1  0Q4       H1             -9.3850000000       16.4160000000       33.8880000000  HETA      125            15.0000000000
        69         1  0Q4       H2            -12.9190000000       15.0590000000       31.3640000000  HETA      125            15.0000000000
        70         1  0Q4       H3             -3.1740000000       17.4780000000       36.7320000000  HETA      125            15.0000000000
        71         1  0Q4       H4             -1.9700000000       15.5010000000       34.2910000000  HETA      125            15.0000000000
        72         1  0Q4       H5              0.6060000000       17.1910000000       31.1280000000  HETA      125            15.0000000000
        73         1  0Q4       H6              4.8030000000       15.6620000000       31.9940000000  HETA      125            15.0000000000
        74         1  0Q4       H71             8.1680000000       14.6890000000       32.9960000000  HETA      125             0.0000000000
        75         1  0Q4       H72             7.7730000000       16.1810000000       32.1300000000  HETA      125             0.0000000000
