* GENERATE LIGAND
*  DATE:     1/24/26      6:47: 8      CREATED BY USER: charmm-gui
*
       130  EXT
         1         1  LIG       N1            -12.1085573194       14.4526997565       31.6093475774  LIG       1               0.0000000000
         2         1  LIG       C1            -11.4060849793       15.2119359946       32.6944820789  LIG       1               0.0000000000
         3         1  LIG       C2             -7.6004286562       15.8233293700       32.8966870222  LIG       1               0.0000000000
         4         1  LIG       C3             -4.9493890590       17.7530338390       34.9131159408  LIG       1               0.0000000000
         5         1  LIG       C4             -1.1612914518       17.2658123010       35.9748376573  LIG       1               0.0000000000
         6         1  LIG       C5             -0.7151781388       15.6128250058       32.5402220770  LIG       1               0.0000000000
         7         1  LIG       C6              2.6982169473       16.5478880565       31.1589734353  LIG       1               0.0000000000
         8         1  LIG       C7              5.6666575339       16.8473067944       33.5291435435  LIG       1               0.0000000000
         9         1  LIG       C8             -9.9102743280       15.0465966184       32.4801493887  LIG       1               0.0000000000
        10         1  LIG       O1             -9.5276307774       14.1667062494       31.7167460404  LIG       1               0.0000000000
        11         1  LIG       C9            -11.8338262864       14.7319319946       34.1251859901  LIG       1               0.0000000000
        12         1  LIG       C10            -7.1631267170       16.1369886521       31.4567323075  LIG       1               0.0000000000
        13         1  LIG       C11            -5.3774664833       17.3960300950       36.3554745616  LIG       1               0.0000000000
        14         1  LIG       C12            -0.9862097438       16.0648494740       36.9649048983  LIG       1               0.0000000000
        15         1  LIG       C13            -1.4501597140       16.5828404474       31.5481092167  LIG       1               0.0000000000
        16         1  LIG       C14             2.8279970919       17.3849947419       29.8776747811  LIG       1               0.0000000000
        17         1  LIG       C15             5.0646509053       17.2457968268       34.9016652708  LIG       1               0.0000000000
        18         1  LIG       C16           -13.1519608872       13.9040117256       34.2860405384  LIG       1               0.0000000000
        19         1  LIG       C17            -7.2201262829       17.6486613084       31.1482842244  LIG       1               0.0000000000
        20         1  LIG       C18            -5.7775716161       15.5328177377       31.1424520449  LIG       1               0.0000000000
        21         1  LIG       C19            -5.3262486068       15.8992342238       36.7981807509  LIG       1               0.0000000000
        22         1  LIG       C20             0.4523110520       15.8470299099       37.3879237790  LIG       1               0.0000000000
        23         1  LIG       C21            -1.2774327379       16.2706157819       30.0280225973  LIG       1               0.0000000000
        24         1  LIG       C22             6.0809768556       17.6994047990       35.9709849732  LIG       1               0.0000000000
        25         1  LIG       C23           -14.3976224835       14.5752658109       34.9355475176  LIG       1               0.0000000000
        26         1  LIG       C24             0.9030952232       16.2708227494       38.6541304697  LIG       1               0.0000000000
        27         1  LIG       C25            -4.4883726259       15.7485977841       38.0717749057  LIG       1               0.0000000000
        28         1  LIG       C26             1.3362273872       15.1549680929       36.5453054119  LIG       1               0.0000000000
        29         1  LIG       C27            -4.8468902603       14.8300677727       35.7866158808  LIG       1               0.0000000000
        30         1  LIG       C28            -2.4262637954       15.4946585233       29.3931389472  LIG       1               0.0000000000
        31         1  LIG       C29             5.8753061977       16.9920824052       37.3146534946  LIG       1               0.0000000000
        32         1  LIG       C30             5.6762384033       17.9346594451       38.5027905507  LIG       1               0.0000000000
        33         1  LIG       C31             2.2037226560       15.9743392850       39.0815767865  LIG       1               0.0000000000
        34         1  LIG       C32             2.6369730976       14.8607379294       36.9689524684  LIG       1               0.0000000000
        35         1  LIG       N2            -14.1180623123       15.8877490017       35.5373888618  LIG       1               0.0000000000
        36         1  LIG       O2             -2.9694968881       15.7635058457       28.3367292225  LIG       1               0.0000000000
        37         1  LIG       O3             -2.8278275314       14.3966425761       30.1126701618  LIG       1               0.0000000000
        38         1  LIG       C33           -14.1227154051       16.1524370591       36.8583124507  LIG       1               0.0000000000
        39         1  LIG       C34             3.0535807390       15.2381726416       38.2517382629  LIG       1               0.0000000000
        40         1  LIG       N3            -14.2990197114       15.1935278201       37.7678141192  LIG       1               0.0000000000
        41         1  LIG       N4            -13.9482688146       17.4129194209       37.2697163338  LIG       1               0.0000000000
        42         1  LIG       C35            -7.0349614771       16.8166726220       33.8895822970  LIG       1               0.0000000000
        43         1  LIG       N5             -9.0405274516       15.8703732810       33.1112063256  LIG       1               0.0000000000
        44         1  LIG       O4             -7.8249905865       17.3643829270       34.6566580940  LIG       1               0.0000000000
        45         1  LIG       C36            -3.4099277658       17.6438745769       34.7022574441  LIG       1               0.0000000000
        46         1  LIG       N6             -5.6952323698       17.0372205102       33.8972904467  LIG       1               0.0000000000
        47         1  LIG       O5              0.1202965658       17.8805555965       34.0440828482  LIG       1               0.0000000000
        48         1  LIG       C37            -0.5928624764       17.0386241815       34.5824003002  LIG       1               0.0000000000
        49         1  LIG       N7             -2.5894233767       17.7748174073       35.9571673994  LIG       1               0.0000000000
        50         1  LIG       O6              1.4570065488       14.6195793857       32.7695761067  LIG       1               0.0000000000
        51         1  LIG       C38             0.7806101094       15.5288354748       32.2992521456  LIG       1               0.0000000000
        52         1  LIG       N8             -0.9806584871       15.9089506444       33.9346821807  LIG       1               0.0000000000
        53         1  LIG       O7              3.3286908827       18.2744188373       32.6898428368  LIG       1               0.0000000000
        54         1  LIG       C39             3.5821522020       17.1692894224       32.2198098562  LIG       1               0.0000000000
        55         1  LIG       N9              1.3232718987       16.4974543345       31.5483316216  LIG       1               0.0000000000
        56         1  LIG       O8              6.3716135615       14.7715871936       34.5270529932  LIG       1               0.0000000000
        57         1  LIG       C40             6.5877616584       15.6470017376       33.6904969260  LIG       1               0.0000000000
        58         1  LIG       N10             4.6670724715       16.4533057596       32.5613726787  LIG       1               0.0000000000
        59         1  LIG       N11             7.6445431760       15.5297398377       32.8439084884  LIG       1               0.0000000000
        60         1  LIG       H1            -11.9392988822       13.4357763923       31.7618218787  LIG       1               0.0000000000
        61         1  LIG       H2             -5.1447382022       16.5426615798       33.2345507207  LIG       1               0.0000000000
        62         1  LIG       H3            -11.6904818307       14.6954212837       30.6863912730  LIG       1               0.0000000000
        63         1  LIG       H4            -14.0225287829       16.6846238156       34.9498963441  LIG       1               0.0000000000
        64         1  LIG       H5            -14.4698204809       14.2652464437       37.4666859015  LIG       1               0.0000000000
        65         1  LIG       H6            -14.3148932798       15.4244751193       38.7340045779  LIG       1               0.0000000000
        66         1  LIG       H7            -13.8737494173       18.1557557944       36.6148354282  LIG       1               0.0000000000
        67         1  LIG       H8            -13.9665912400       17.6117436110       38.2436806302  LIG       1               0.0000000000
        68         1  LIG       H9             -9.2925485779       16.5340040238       33.8190217009  LIG       1               0.0000000000
        69         1  LIG       H10           -13.1267090793       14.6523440060       31.6003917668  LIG       1               0.0000000000
        70         1  LIG       H11            -3.0918944020       17.3876639775       36.7590575000  LIG       1               0.0000000000
        71         1  LIG       H12            -1.6686023869       15.3443102246       34.3778561212  LIG       1               0.0000000000
        72         1  LIG       H13             0.7527034937       17.2537593064       31.2489184867  LIG       1               0.0000000000
        73         1  LIG       H14             4.7918113071       15.5546567491       32.1568578506  LIG       1               0.0000000000
        74         1  LIG       H15             7.8130071799       16.2132252492       32.1422126959  LIG       1               0.0000000000
        75         1  LIG       H16             8.2132257594       14.7198378794       32.9646554345  LIG       1               0.0000000000
        76         1  LIG       H17           -11.6598536484       16.2871172409       32.5669367779  LIG       1               0.0000000000
        77         1  LIG       H18            -7.2505878139       14.8074544144       33.1887696574  LIG       1               0.0000000000
        78         1  LIG       H19            -5.1852609131       18.8355077884       34.7599851276  LIG       1               0.0000000000
        79         1  LIG       H20            -0.5636648304       18.1111197762       36.3950347284  LIG       1               0.0000000000
        80         1  LIG       H21            -1.1117496875       14.5910378424       32.3560970882  LIG       1               0.0000000000
        81         1  LIG       H22             3.0508889583       15.5105631442       30.9574038990  LIG       1               0.0000000000
        82         1  LIG       H23             6.2391469485       17.7128433172       33.1271780898  LIG       1               0.0000000000
        83         1  LIG       H24           -11.7931948038       15.6059497166       34.8062001779  LIG       1               0.0000000000
        84         1  LIG       H25           -11.0359685436       14.0577024855       34.5247140656  LIG       1               0.0000000000
        85         1  LIG       H26            -7.8737788689       15.6329726186       30.7609780196  LIG       1               0.0000000000
        86         1  LIG       H27            -6.4091873143       17.7737360215       36.5112103926  LIG       1               0.0000000000
        87         1  LIG       H28            -4.7873820383       18.0174849921       37.0609002025  LIG       1               0.0000000000
        88         1  LIG       H29            -1.3843381867       15.1132579349       36.5607517870  LIG       1               0.0000000000
        89         1  LIG       H30            -1.5255462724       16.2973022796       37.9060809734  LIG       1               0.0000000000
        90         1  LIG       H31            -1.0904267960       17.6188878190       31.7422948144  LIG       1               0.0000000000
        91         1  LIG       H32            -2.5347851593       16.5955059673       31.7867731637  LIG       1               0.0000000000
        92         1  LIG       H33             3.8752419695       17.3710493855       29.5095038309  LIG       1               0.0000000000
        93         1  LIG       H34             2.5353515410       18.4404272933       30.0779097406  LIG       1               0.0000000000
        94         1  LIG       H35             2.1621062982       16.9806488513       29.0878198509  LIG       1               0.0000000000
        95         1  LIG       H36             4.4459807763       16.3905777596       35.2489672701  LIG       1               0.0000000000
        96         1  LIG       H37             4.3557928555       18.0918592412       34.7770226325  LIG       1               0.0000000000
        97         1  LIG       H38           -12.8904902875       13.0353238855       34.9373856043  LIG       1               0.0000000000
        98         1  LIG       H39           -13.4998612208       13.4323828019       33.3466834016  LIG       1               0.0000000000
        99         1  LIG       H40            -6.3822202281       18.1900943612       31.6371815635  LIG       1               0.0000000000
       100         1  LIG       H41            -8.1743825304       18.0966375314       31.4950392386  LIG       1               0.0000000000
       101         1  LIG       H42            -7.1226165786       17.8151197846       30.0553705212  LIG       1               0.0000000000
       102         1  LIG       H43            -5.6665900779       14.5190827454       31.5831170618  LIG       1               0.0000000000
       103         1  LIG       H44            -4.9574640528       16.1826130786       31.5064501170  LIG       1               0.0000000000
       104         1  LIG       H45            -5.6609536872       15.4428105396       30.0401481729  LIG       1               0.0000000000
       105         1  LIG       H46            -6.3780524235       15.6341662210       37.0669589861  LIG       1               0.0000000000
       106         1  LIG       H47            -0.3546842868       15.6934999812       29.8190712895  LIG       1               0.0000000000
       107         1  LIG       H48            -1.2026923526       17.2294349517       29.4693066606  LIG       1               0.0000000000
       108         1  LIG       H49             5.9546917594       18.7960252872       36.1204030685  LIG       1               0.0000000000
       109         1  LIG       H50             7.1250818278       17.5320727258       35.6321493564  LIG       1               0.0000000000
       110         1  LIG       H51           -14.8332396511       13.8501376592       35.6502461504  LIG       1               0.0000000000
       111         1  LIG       H52           -15.1826182767       14.7040816669       34.1693194628  LIG       1               0.0000000000
       112         1  LIG       H53             0.2416489742       16.8137733363       39.3114773683  LIG       1               0.0000000000
       113         1  LIG       H54            -4.6440821301       16.5997285852       38.7665559699  LIG       1               0.0000000000
       114         1  LIG       H55            -3.4222348675       15.6992573069       37.7951334782  LIG       1               0.0000000000
       115         1  LIG       H56            -4.7370292268       14.8018389700       38.5932949620  LIG       1               0.0000000000
       116         1  LIG       H57             1.0178519571       14.8367711577       35.5645758192  LIG       1               0.0000000000
       117         1  LIG       H58            -3.8619769253       15.0961584408       35.3597502626  LIG       1               0.0000000000
       118         1  LIG       H59            -5.5744245115       14.6960167628       34.9632108330  LIG       1               0.0000000000
       119         1  LIG       H60            -4.7309510479       13.8476486851       36.2884424365  LIG       1               0.0000000000
       120         1  LIG       H61             6.7006789866       16.2730046903       37.5071878523  LIG       1               0.0000000000
       121         1  LIG       H62             4.9600008416       16.3849054205       37.2115952832  LIG       1               0.0000000000
       122         1  LIG       H63             4.7995485222       18.5955808727       38.3240717573  LIG       1               0.0000000000
       123         1  LIG       H64             6.5757689340       18.5677521959       38.6495547829  LIG       1               0.0000000000
       124         1  LIG       H65             5.4881273527       17.3551301602       39.4321713624  LIG       1               0.0000000000
       125         1  LIG       H66             2.5547010409       16.3083997276       40.0477514800  LIG       1               0.0000000000
       126         1  LIG       H67             3.3196129965       14.3515110426       36.3017379981  LIG       1               0.0000000000
       127         1  LIG       H68            -3.5025513370       13.9621715412       29.5911877853  LIG       1               0.0000000000
       128         1  LIG       H69             4.0571053994       15.0057872370       38.5800838934  LIG       1               0.0000000000
       129         1  LIG       H70            -3.0761532528       18.4450560639       34.0015250706  LIG       1               0.0000000000
       130         1  LIG       H71            -3.2475832623       16.6858113815       34.1864977462  LIG       1               0.0000000000
