PSF EXT CMAP XPLOR

         2 !NTITLE
* GENERATE LIGAND                                                               
*  DATE:     1/24/26      6:47: 8      CREATED BY USER: charmm-gui              

       130 !NATOM
         1 LIG      1        LIG      N1       NG3P3   -0.286000       14.0070           0
         2 LIG      1        LIG      C1       CG314    0.227000       12.0110           0
         3 LIG      1        LIG      C2       CG311    0.700000E-01   12.0110           0
         4 LIG      1        LIG      C3       CG311   -0.760000E-01   12.0110           0
         5 LIG      1        LIG      C4       CG311    0.218000       12.0110           0
         6 LIG      1        LIG      C5       CG311    0.790000E-01   12.0110           0
         7 LIG      1        LIG      C6       CG311    0.780000E-01   12.0110           0
         8 LIG      1        LIG      C7       CG311    0.590000E-01   12.0110           0
         9 LIG      1        LIG      C8       CG2O1    0.370000       12.0110           0
        10 LIG      1        LIG      O1       OG2D1   -0.474000       15.9994           0
        11 LIG      1        LIG      C9       CG321   -0.154000       12.0110           0
        12 LIG      1        LIG      C10      CG311   -0.780000E-01   12.0110           0
        13 LIG      1        LIG      C11      CG321   -0.118000       12.0110           0
        14 LIG      1        LIG      C12      CG321   -0.291000       12.0110           0
        15 LIG      1        LIG      C13      CG321   -0.185000       12.0110           0
        16 LIG      1        LIG      C14      CG331   -0.270000       12.0110           0
        17 LIG      1        LIG      C15      CG321   -0.120000       12.0110           0
        18 LIG      1        LIG      C16      CG321   -0.840000E-01   12.0110           0
        19 LIG      1        LIG      C17      CG331   -0.269000       12.0110           0
        20 LIG      1        LIG      C18      CG331   -0.269000       12.0110           0
        21 LIG      1        LIG      C19      CG311   -0.102000       12.0110           0
        22 LIG      1        LIG      C20      CG2R61   0.180000E-01   12.0110           0
        23 LIG      1        LIG      C21      CG321   -0.190000       12.0110           0
        24 LIG      1        LIG      C22      CG321   -0.214000       12.0110           0
        25 LIG      1        LIG      C23      CG324    0.204000       12.0110           0
        26 LIG      1        LIG      C24      CG2R61  -0.123000       12.0110           0
        27 LIG      1        LIG      C25      CG331   -0.268000       12.0110           0
        28 LIG      1        LIG      C26      CG2R61  -0.123000       12.0110           0
        29 LIG      1        LIG      C27      CG331   -0.268000       12.0110           0
        30 LIG      1        LIG      C28      CG2O2    0.735000       12.0110           0
        31 LIG      1        LIG      C29      CG321   -0.167000       12.0110           0
        32 LIG      1        LIG      C30      CG331   -0.270000       12.0110           0
        33 LIG      1        LIG      C31      CG2R61  -0.112000       12.0110           0
        34 LIG      1        LIG      C32      CG2R61  -0.112000       12.0110           0
        35 LIG      1        LIG      N2       NG2P1   -0.707000       14.0070           0
        36 LIG      1        LIG      O2       OG2D1   -0.576000       15.9994           0
        37 LIG      1        LIG      O3       OG311   -0.600000       15.9994           0
        38 LIG      1        LIG      C33      CG2N1    0.652000       12.0110           0
        39 LIG      1        LIG      C34      CG2R61  -0.116000       12.0110           0
        40 LIG      1        LIG      N3       NG2P1   -0.749000       14.0070           0
        41 LIG      1        LIG      N4       NG2P1   -0.749000       14.0070           0
        42 LIG      1        LIG      C35      CG2O1    0.538000       12.0110           0
        43 LIG      1        LIG      N5       NG2S1   -0.321000       14.0070           0
        44 LIG      1        LIG      O4       OG2D1   -0.510000       15.9994           0
        45 LIG      1        LIG      C36      CG321    0.340000E-01   12.0110           0
        46 LIG      1        LIG      N6       NG2S1   -0.441000       14.0070           0
        47 LIG      1        LIG      O5       OG2D1   -0.489000       15.9994           0
        48 LIG      1        LIG      C37      CG2O1    0.456000       12.0110           0
        49 LIG      1        LIG      N7       NG311   -0.704000       14.0070           0
        50 LIG      1        LIG      O6       OG2D1   -0.509000       15.9994           0
        51 LIG      1        LIG      C38      CG2O1    0.514000       12.0110           0
        52 LIG      1        LIG      N8       NG2S1   -0.464000       14.0070           0
        53 LIG      1        LIG      O7       OG2D1   -0.511000       15.9994           0
        54 LIG      1        LIG      C39      CG2O1    0.525000       12.0110           0
        55 LIG      1        LIG      N9       NG2S1   -0.514000       14.0070           0
        56 LIG      1        LIG      O8       OG2D1   -0.537000       15.9994           0
        57 LIG      1        LIG      C40      CG2O1    0.462000       12.0110           0
        58 LIG      1        LIG      N10      NG2S1   -0.447000       14.0070           0
        59 LIG      1        LIG      N11      NG2S2   -0.677000       14.0070           0
        60 LIG      1        LIG      H1       HGP2     0.293000       1.00800           0
        61 LIG      1        LIG      H2       HGP1     0.316000       1.00800           0
        62 LIG      1        LIG      H3       HGP2     0.293000       1.00800           0
        63 LIG      1        LIG      H4       HGP2     0.431000       1.00800           0
        64 LIG      1        LIG      H5       HGP2     0.424000       1.00800           0
        65 LIG      1        LIG      H6       HGP2     0.424000       1.00800           0
        66 LIG      1        LIG      H7       HGP2     0.424000       1.00800           0
        67 LIG      1        LIG      H8       HGP2     0.424000       1.00800           0
        68 LIG      1        LIG      H9       HGP1     0.272000       1.00800           0
        69 LIG      1        LIG      H10      HGP2     0.293000       1.00800           0
        70 LIG      1        LIG      H11      HGPAM1   0.366000       1.00800           0
        71 LIG      1        LIG      H12      HGP1     0.316000       1.00800           0
        72 LIG      1        LIG      H13      HGP1     0.316000       1.00800           0
        73 LIG      1        LIG      H14      HGP1     0.316000       1.00800           0
        74 LIG      1        LIG      H15      HGP1     0.339000       1.00800           0
        75 LIG      1        LIG      H16      HGP1     0.339000       1.00800           0
        76 LIG      1        LIG      H17      HGA1     0.900000E-01   1.00800           0
        77 LIG      1        LIG      H18      HGA1     0.900000E-01   1.00800           0
        78 LIG      1        LIG      H19      HGA1     0.900000E-01   1.00800           0
        79 LIG      1        LIG      H20      HGA1     0.900000E-01   1.00800           0
        80 LIG      1        LIG      H21      HGA1     0.900000E-01   1.00800           0
        81 LIG      1        LIG      H22      HGA1     0.900000E-01   1.00800           0
        82 LIG      1        LIG      H23      HGA1     0.900000E-01   1.00800           0
        83 LIG      1        LIG      H24      HGA2     0.900000E-01   1.00800           0
        84 LIG      1        LIG      H25      HGA2     0.900000E-01   1.00800           0
        85 LIG      1        LIG      H26      HGA1     0.900000E-01   1.00800           0
        86 LIG      1        LIG      H27      HGA2     0.900000E-01   1.00800           0
        87 LIG      1        LIG      H28      HGA2     0.900000E-01   1.00800           0
        88 LIG      1        LIG      H29      HGA2     0.900000E-01   1.00800           0
        89 LIG      1        LIG      H30      HGA2     0.900000E-01   1.00800           0
        90 LIG      1        LIG      H31      HGA2     0.900000E-01   1.00800           0
        91 LIG      1        LIG      H32      HGA2     0.900000E-01   1.00800           0
        92 LIG      1        LIG      H33      HGA3     0.900000E-01   1.00800           0
        93 LIG      1        LIG      H34      HGA3     0.900000E-01   1.00800           0
        94 LIG      1        LIG      H35      HGA3     0.900000E-01   1.00800           0
        95 LIG      1        LIG      H36      HGA2     0.900000E-01   1.00800           0
        96 LIG      1        LIG      H37      HGA2     0.900000E-01   1.00800           0
        97 LIG      1        LIG      H38      HGA2     0.900000E-01   1.00800           0
        98 LIG      1        LIG      H39      HGA2     0.900000E-01   1.00800           0
        99 LIG      1        LIG      H40      HGA3     0.900000E-01   1.00800           0
       100 LIG      1        LIG      H41      HGA3     0.900000E-01   1.00800           0
       101 LIG      1        LIG      H42      HGA3     0.900000E-01   1.00800           0
       102 LIG      1        LIG      H43      HGA3     0.900000E-01   1.00800           0
       103 LIG      1        LIG      H44      HGA3     0.900000E-01   1.00800           0
       104 LIG      1        LIG      H45      HGA3     0.900000E-01   1.00800           0
       105 LIG      1        LIG      H46      HGA1     0.900000E-01   1.00800           0
       106 LIG      1        LIG      H47      HGA2     0.900000E-01   1.00800           0
       107 LIG      1        LIG      H48      HGA2     0.900000E-01   1.00800           0
       108 LIG      1        LIG      H49      HGA2     0.900000E-01   1.00800           0
       109 LIG      1        LIG      H50      HGA2     0.900000E-01   1.00800           0
       110 LIG      1        LIG      H51      HGA2     0.900000E-01   1.00800           0
       111 LIG      1        LIG      H52      HGA2     0.900000E-01   1.00800           0
       112 LIG      1        LIG      H53      HGR61    0.116000       1.00800           0
       113 LIG      1        LIG      H54      HGA3     0.900000E-01   1.00800           0
       114 LIG      1        LIG      H55      HGA3     0.900000E-01   1.00800           0
       115 LIG      1        LIG      H56      HGA3     0.900000E-01   1.00800           0
       116 LIG      1        LIG      H57      HGR61    0.116000       1.00800           0
       117 LIG      1        LIG      H58      HGA3     0.900000E-01   1.00800           0
       118 LIG      1        LIG      H59      HGA3     0.900000E-01   1.00800           0
       119 LIG      1        LIG      H60      HGA3     0.900000E-01   1.00800           0
       120 LIG      1        LIG      H61      HGA2     0.900000E-01   1.00800           0
       121 LIG      1        LIG      H62      HGA2     0.900000E-01   1.00800           0
       122 LIG      1        LIG      H63      HGA3     0.900000E-01   1.00800           0
       123 LIG      1        LIG      H64      HGA3     0.900000E-01   1.00800           0
       124 LIG      1        LIG      H65      HGA3     0.900000E-01   1.00800           0
       125 LIG      1        LIG      H66      HGR61    0.116000       1.00800           0
       126 LIG      1        LIG      H67      HGR61    0.116000       1.00800           0
       127 LIG      1        LIG      H68      HGP1     0.429000       1.00800           0
       128 LIG      1        LIG      H69      HGR61    0.116000       1.00800           0
       129 LIG      1        LIG      H70      HGA2     0.900000E-01   1.00800           0
       130 LIG      1        LIG      H71      HGA2     0.900000E-01   1.00800           0

       130 !NBOND: bonds
         1        60         1         2         2        11         2        76
         3        43         3        42         3        77         4        13
         4        78         5        14         5        79         6        52
         6        80         7        55         7        54         7        81
         8        57         8        17         8        82         9         2
         9        43        10         9        11        18        11        83
        11        84        12         3        12        85        13        21
        13        86        13        87        14        22        14        88
        14        89        15         6        15        90        15        91
         7        16        16        92        16        93        16        94
        17        24        17        95        17        96        18        25
        18        97        18        98        19        12        19        99
        19       100        19       101        20        12        20       102
        20       103        20       104        21        29        21       105
        22        26        23        15        23       106        23       107
        24        31        24       108        24       109        25        35
        25       110        25       111        26        33        26       112
        27        21        27       113        27       114        27       115
        28        34        28        22        28       116        29       117
        29       118        29       119        30        37        30        23
        31        32        31       120        31       121        32       122
        32       123        32       124        33       125        34        39
        34       126        35        38        36        30        37       127
        38        41        38        40        39        33        39       128
        40        65        41        67        42        44        43        68
        45         4        45        49        45       129        45       130
        46        42         4        46        47        48        48         5
         5        49        49        70        51         6        51        50
        52        71        52        48        54        58        54        53
        55        51        57        56         8        58        59        74
        59        57        61        46        62         1        63        35
        64        40        66        41        69         1        72        55
        73        58        75        59

       235 !NTHETA: angles
         2         1        60         2         1        62         2         1        69
        60         1        62        60         1        69        62         1        69
         1         2         9         1         2        11         1         2        76
         9         2        11         9         2        76        11         2        76
        12         3        42        12         3        43        12         3        77
        42         3        43        42         3        77        43         3        77
        13         4        45        13         4        46        13         4        78
        45         4        46        45         4        78        46         4        78
        14         5        48        14         5        49        14         5        79
        48         5        49        48         5        79        49         5        79
        15         6        51        15         6        52        15         6        80
        51         6        52        51         6        80        52         6        80
        16         7        54        16         7        55        16         7        81
        54         7        55        54         7        81        55         7        81
        17         8        57        17         8        58        17         8        82
        57         8        58        57         8        82        58         8        82
         2         9        10         2         9        43        10         9        43
         2        11        18         2        11        83         2        11        84
        18        11        83        18        11        84        83        11        84
         3        12        19         3        12        20         3        12        85
        19        12        20        19        12        85        20        12        85
         4        13        21         4        13        86         4        13        87
        21        13        86        21        13        87        86        13        87
         5        14        22         5        14        88         5        14        89
        22        14        88        22        14        89        88        14        89
         6        15        23         6        15        90         6        15        91
        23        15        90        23        15        91        90        15        91
         7        16        92         7        16        93         7        16        94
        92        16        93        92        16        94        93        16        94
         8        17        24         8        17        95         8        17        96
        24        17        95        24        17        96        95        17        96
        11        18        25        11        18        97        11        18        98
        25        18        97        25        18        98        97        18        98
        12        19        99        12        19       100        12        19       101
        99        19       100        99        19       101       100        19       101
        12        20       102        12        20       103        12        20       104
       102        20       103       102        20       104       103        20       104
        13        21        27        13        21        29        13        21       105
        27        21        29        27        21       105        29        21       105
        14        22        26        14        22        28        26        22        28
        15        23        30        15        23       106        15        23       107
        30        23       106        30        23       107       106        23       107
        17        24        31        17        24       108        17        24       109
        31        24       108        31        24       109       108        24       109
        18        25        35        18        25       110        18        25       111
        35        25       110        35        25       111       110        25       111
        22        26        33        22        26       112        33        26       112
        21        27       113        21        27       114        21        27       115
       113        27       114       113        27       115       114        27       115
        22        28        34        22        28       116        34        28       116
        21        29       117        21        29       118        21        29       119
       117        29       118       117        29       119       118        29       119
        23        30        36        23        30        37        36        30        37
        24        31        32        24        31       120        24        31       121
        32        31       120        32        31       121       120        31       121
        31        32       122        31        32       123        31        32       124
       122        32       123       122        32       124       123        32       124
        26        33        39        26        33       125        39        33       125
        28        34        39        28        34       126        39        34       126
        25        35        38        25        35        63        38        35        63
        30        37       127        35        38        40        35        38        41
        40        38        41        33        39        34        33        39       128
        34        39       128        38        40        64        38        40        65
        64        40        65        38        41        66        38        41        67
        66        41        67         3        42        44         3        42        46
        44        42        46         3        43         9         3        43        68
         9        43        68         4        45        49         4        45       129
         4        45       130        49        45       129        49        45       130
       129        45       130         4        46        42         4        46        61
        42        46        61         5        48        47         5        48        52
        47        48        52         5        49        45         5        49        70
        45        49        70         6        51        50         6        51        55
        50        51        55         6        52        48         6        52        71
        48        52        71         7        54        53         7        54        58
        53        54        58         7        55        51         7        55        72
        51        55        72         8        57        56         8        57        59
        56        57        59         8        58        54         8        58        73
        54        58        73        57        59        74        57        59        75
        74        59        75

       338 !NPHI: dihedrals
         1         2         9        10         1         2         9        43
         1         2        11        18         1         2        11        83
         1         2        11        84         2         9        43         3
         2         9        43        68         2        11        18        25
         2        11        18        97         2        11        18        98
         3        12        19        99         3        12        19       100
         3        12        19       101         3        12        20       102
         3        12        20       103         3        12        20       104
         3        42        46         4         3        42        46        61
         3        43         9        10         4        13        21        27
         4        13        21        29         4        13        21       105
         4        45        49         5         4        45        49        70
         4        46        42        44         5        14        22        26
         5        14        22        28         5        48        52         6
         5        48        52        71         5        49        45       129
         5        49        45       130         6        15        23        30
         6        15        23       106         6        15        23       107
         6        51        55         7         6        51        55        72
         6        52        48        47         7        54        58         8
         7        54        58        73         7        55        51        50
         8        17        24        31         8        17        24       108
         8        17        24       109         8        57        59        74
         8        57        59        75         8        58        54        53
         9         2         1        60         9         2         1        62
         9         2         1        69         9         2        11        18
         9         2        11        83         9         2        11        84
         9        43         3        12         9        43         3        42
         9        43         3        77        10         9         2        11
        10         9         2        76        10         9        43        68
        11         2         1        60        11         2         1        62
        11         2         1        69        11         2         9        43
        11        18        25        35        11        18        25       110
        11        18        25       111        12         3        42        44
        12         3        42        46        12         3        43        68
        13         4        45        49        13         4        45       129
        13         4        45       130        13         4        46        42
        13         4        46        61        13        21        27       113
        13        21        27       114        13        21        27       115
        13        21        29       117        13        21        29       118
        13        21        29       119        14         5        48        47
        14         5        48        52        14         5        49        45
        14         5        49        70        14        22        26        33
        14        22        26       112        14        22        28        34
        14        22        28       116        15         6        51        50
        15         6        51        55        15         6        52        48
        15         6        52        71        15        23        30        36
        15        23        30        37        16         7        54        53
        16         7        54        58        16         7        55        51
        16         7        55        72        17         8        57        56
        17         8        57        59        17         8        58        54
        17         8        58        73        17        24        31        32
        17        24        31       120        17        24        31       121
        18        11         2        76        18        25        35        38
        18        25        35        63        19        12         3        42
        19        12         3        43        19        12         3        77
        19        12        20       102        19        12        20       103
        19        12        20       104        20        12         3        42
        20        12         3        43        20        12         3        77
        20        12        19        99        20        12        19       100
        20        12        19       101        21        13         4        45
        21        13         4        46        21        13         4        78
        22        14         5        48        22        14         5        49
        22        14         5        79        22        26        33        39
        22        26        33       125        22        28        34        39
        22        28        34       126        23        15         6        51
        23        15         6        52        23        15         6        80
        23        30        37       127        24        17         8        57
        24        17         8        58        24        17         8        82
        24        31        32       122        24        31        32       123
        24        31        32       124        25        18        11        83
        25        18        11        84        25        35        38        40
        25        35        38        41        26        22        14        88
        26        22        14        89        26        22        28        34
        26        22        28       116        26        33        39        34
        26        33        39       128        27        21        13        86
        27        21        13        87        27        21        29       117
        27        21        29       118        27        21        29       119
        28        22        14        88        28        22        14        89
        28        22        26        33        28        22        26       112
        28        34        39        33        28        34        39       128
        29        21        13        86        29        21        13        87
        29        21        27       113        29        21        27       114
        29        21        27       115        30        23        15        90
        30        23        15        91        31        24        17        95
        31        24        17        96        32        31        24       108
        32        31        24       109        33        39        34       126
        34        39        33       125        35        25        18        97
        35        25        18        98        35        38        40        64
        35        38        40        65        35        38        41        66
        35        38        41        67        36        30        23       106
        36        30        23       107        36        30        37       127
        37        30        23       106        37        30        23       107
        38        35        25       110        38        35        25       111
        39        33        26       112        39        34        28       116
        40        38        35        63        40        38        41        66
        40        38        41        67        41        38        35        63
        41        38        40        64        41        38        40        65
        42         3        12        85        42         3        43        68
        42        46         4        45        42        46         4        78
        43         3        12        85        43         3        42        44
        43         3        42        46        43         9         2        76
        44        42         3        77        44        42        46        61
        45         4        13        86        45         4        13        87
        45         4        46        61        45        49         5        48
        45        49         5        79        46         4        13        86
        46         4        13        87        46         4        45        49
        46         4        45       129        46         4        45       130
        46        42         3        77        47        48         5        49
        47        48         5        79        47        48        52        71
        48         5        14        88        48         5        14        89
        48         5        49        70        48        52         6        51
        48        52         6        80        49         5        14        88
        49         5        14        89        49         5        48        52
        49        45         4        78        50        51         6        52
        50        51         6        80        50        51        55        72
        51         6        15        90        51         6        15        91
        51         6        52        71        51        55         7        54
        51        55         7        81        52         6        15        90
        52         6        15        91        52         6        51        55
        52        48         5        79        53        54         7        55
        53        54         7        81        53        54        58        73
        54         7        16        92        54         7        16        93
        54         7        16        94        54         7        55        72
        54        58         8        57        54        58         8        82
        55         7        16        92        55         7        16        93
        55         7        16        94        55         7        54        58
        55        51         6        80        56        57         8        58
        56        57         8        82        56        57        59        74
        56        57        59        75        57         8        17        95
        57         8        17        96        57         8        58        73
        58         8        17        95        58         8        17        96
        58         8        57        59        58        54         7        81
        59        57         8        82        60         1         2        76
        61        46         4        78        62         1         2        76
        63        35        25       110        63        35        25       111
        68        43         3        77        69         1         2        76
        70        49         5        79        70        49        45       129
        70        49        45       130        71        52         6        80
        72        55         7        81        73        58         8        82
        76         2        11        83        76         2        11        84
        77         3        12        85        78         4        13        86
        78         4        13        87        78         4        45       129
        78         4        45       130        79         5        14        88
        79         5        14        89        80         6        15        90
        80         6        15        91        81         7        16        92
        81         7        16        93        81         7        16        94
        82         8        17        95        82         8        17        96
        83        11        18        97        83        11        18        98
        84        11        18        97        84        11        18        98
        85        12        19        99        85        12        19       100
        85        12        19       101        85        12        20       102
        85        12        20       103        85        12        20       104
        86        13        21       105        87        13        21       105
        90        15        23       106        90        15        23       107
        91        15        23       106        91        15        23       107
        95        17        24       108        95        17        24       109
        96        17        24       108        96        17        24       109
        97        18        25       110        97        18        25       111
        98        18        25       110        98        18        25       111
       105        21        27       113       105        21        27       114
       105        21        27       115       105        21        29       117
       105        21        29       118       105        21        29       119
       108        24        31       120       108        24        31       121
       109        24        31       120       109        24        31       121
       112        26        33       125       116        28        34       126
       120        31        32       122       120        31        32       123
       120        31        32       124       121        31        32       122
       121        31        32       123       121        31        32       124
       125        33        39       128       126        34        39       128

         8 !NIMPHI: impropers
         9         2        43        10        30        23        36        37
        38        35        41        40        42         3        46        44
        48         5        52        47        51         6        55        50
        54         7        58        53        57         8        59        56

         0 !NDON: donors


         0 !NACC: acceptors


         0 !NNB

         0         0         0         0         0         0         0         0
         0         0         0         0         0         0         0         0
         0         0         0         0         0         0         0         0
         0         0         0         0         0         0         0         0
         0         0         0         0         0         0         0         0
         0         0         0         0         0         0         0         0
         0         0         0         0         0         0         0         0
         0         0         0         0         0         0         0         0
         0         0         0         0         0         0         0         0
         0         0         0         0         0         0         0         0
         0         0         0         0         0         0         0         0
         0         0         0         0         0         0         0         0
         0         0         0         0         0         0         0         0
         0         0         0         0         0         0         0         0
         0         0         0         0         0         0         0         0
         0         0         0         0         0         0         0         0
         0         0

         1         0 !NGRP NST2
         0         2         0

         0         0 !NUMLP NUMLPH

         0 !NCRTERM: cross-terms

