* GENERATED BY CHARMM-GUI (HTTP://WWW.CHARMM-GUI.ORG)
*
        59  EXT
         1         1  LIG       N1            -12.1570000000       14.4210000000       31.7070000000  LIG       1               0.0000000000
         2         1  LIG       C1            -11.4020000000       15.2090000000       32.7300000000  LIG       1               0.0000000000
         3         1  LIG       C2             -7.5900000000       15.8060000000       33.0270000000  LIG       1               0.0000000000
         4         1  LIG       C3             -4.7960000000       17.6500000000       34.8460000000  LIG       1               0.0000000000
         5         1  LIG       C4             -1.1950000000       17.2470000000       36.0270000000  LIG       1               0.0000000000
         6         1  LIG       C5             -0.7990000000       15.6310000000       32.5500000000  LIG       1               0.0000000000
         7         1  LIG       C6              2.6160000000       16.5810000000       31.2280000000  LIG       1               0.0000000000
         8         1  LIG       C7              5.7040000000       16.8510000000       33.4670000000  LIG       1               0.0000000000
         9         1  LIG       C8             -9.8710000000       15.0340000000       32.4760000000  LIG       1               0.0000000000
        10         1  LIG       O1             -9.4650000000       14.2480000000       31.5990000000  LIG       1               0.0000000000
        11         1  LIG       C9            -11.8320000000       14.7540000000       34.1300000000  LIG       1               0.0000000000
        12         1  LIG       C10            -7.2020000000       16.1110000000       31.4900000000  LIG       1               0.0000000000
        13         1  LIG       C11            -5.3220000000       17.4130000000       36.2830000000  LIG       1               0.0000000000
        14         1  LIG       C12            -0.9570000000       16.0730000000       37.0240000000  LIG       1               0.0000000000
        15         1  LIG       C13            -1.4500000000       16.5920000000       31.5170000000  LIG       1               0.0000000000
        16         1  LIG       C14             2.8010000000       17.3870000000       29.9570000000  LIG       1               0.0000000000
        17         1  LIG       C15             5.0520000000       17.2430000000       34.8180000000  LIG       1               0.0000000000
        18         1  LIG       C16           -13.1320000000       13.8850000000       34.2240000000  LIG       1               0.0000000000
        19         1  LIG       C17            -7.1860000000       17.6130000000       31.1950000000  LIG       1               0.0000000000
        20         1  LIG       C18            -5.8030000000       15.5540000000       31.1590000000  LIG       1               0.0000000000
        21         1  LIG       C19            -5.3100000000       15.9330000000       36.7570000000  LIG       1               0.0000000000
        22         1  LIG       C20             0.4510000000       15.8480000000       37.4110000000  LIG       1               0.0000000000
        23         1  LIG       C21            -1.2390000000       16.2820000000       30.0480000000  LIG       1               0.0000000000
        24         1  LIG       C22             6.0050000000       17.6840000000       35.9840000000  LIG       1               0.0000000000
        25         1  LIG       C23           -14.3600000000       14.5570000000       34.9340000000  LIG       1               0.0000000000
        26         1  LIG       C24             0.9210000000       16.2640000000       38.6490000000  LIG       1               0.0000000000
        27         1  LIG       C25            -4.4330000000       15.7890000000       37.9870000000  LIG       1               0.0000000000
        28         1  LIG       C26             1.3230000000       15.1870000000       36.5510000000  LIG       1               0.0000000000
        29         1  LIG       C27            -4.8450000000       14.9600000000       35.6740000000  LIG       1               0.0000000000
        30         1  LIG       C28            -2.3800000000       15.4550000000       29.4360000000  LIG       1               0.0000000000
        31         1  LIG       C29             5.7670000000       16.9280000000       37.3500000000  LIG       1               0.0000000000
        32         1  LIG       C30             5.6370000000       17.9070000000       38.4980000000  LIG       1               0.0000000000
        33         1  LIG       C31             2.2550000000       16.0130000000       39.0450000000  LIG       1               0.0000000000
        34         1  LIG       C32             2.6740000000       14.9290000000       36.9330000000  LIG       1               0.0000000000
        35         1  LIG       N2            -14.0900000000       15.8800000000       35.5120000000  LIG       1               0.0000000000
        36         1  LIG       O2             -2.8420000000       15.8000000000       28.3330000000  LIG       1               0.0000000000
        37         1  LIG       O3             -2.8270000000       14.4470000000       30.0460000000  LIG       1               0.0000000000
        38         1  LIG       C33           -14.0830000000       16.1520000000       36.8200000000  LIG       1               0.0000000000
        39         1  LIG       C34             3.1310000000       15.3430000000       38.1840000000  LIG       1               0.0000000000
        40         1  LIG       N3            -14.3160000000       15.1800000000       37.6860000000  LIG       1               0.0000000000
        41         1  LIG       N4            -13.9670000000       17.4140000000       37.2580000000  LIG       1               0.0000000000
        42         1  LIG       C35            -6.8820000000       16.7290000000       34.0530000000  LIG       1               0.0000000000
        43         1  LIG       N5             -9.0450000000       15.8140000000       33.1920000000  LIG       1               0.0000000000
        44         1  LIG       O4             -7.4980000000       17.3830000000       34.8850000000  LIG       1               0.0000000000
        45         1  LIG       C36            -3.2830000000       17.5060000000       34.7570000000  LIG       1               0.0000000000
        46         1  LIG       N6             -5.5770000000       16.8660000000       33.9070000000  LIG       1               0.0000000000
        47         1  LIG       O5              0.2400000000       17.7060000000       34.1310000000  LIG       1               0.0000000000
        48         1  LIG       C37            -0.6890000000       17.0260000000       34.5740000000  LIG       1               0.0000000000
        49         1  LIG       N7             -2.6460000000       17.4290000000       35.9120000000  LIG       1               0.0000000000
        50         1  LIG       O6              1.4460000000       14.8150000000       32.9550000000  LIG       1               0.0000000000
        51         1  LIG       C38             0.7160000000       15.5820000000       32.3240000000  LIG       1               0.0000000000
        52         1  LIG       N8             -1.2280000000       16.0100000000       33.8990000000  LIG       1               0.0000000000
        53         1  LIG       O7              3.2750000000       18.1960000000       32.9310000000  LIG       1               0.0000000000
        54         1  LIG       C39             3.5400000000       17.1510000000       32.3340000000  LIG       1               0.0000000000
        55         1  LIG       N9              1.2020000000       16.5210000000       31.5290000000  LIG       1               0.0000000000
        56         1  LIG       O8              6.3530000000       14.7800000000       34.5740000000  LIG       1               0.0000000000
        57         1  LIG       C40             6.5970000000       15.6130000000       33.6530000000  LIG       1               0.0000000000
        58         1  LIG       N10             4.6540000000       16.4550000000       32.5370000000  LIG       1               0.0000000000
        59         1  LIG       N11             7.5760000000       15.5100000000       32.8720000000  LIG       1               0.0000000000
