PSF EXT CMAP XPLOR

         2 !NTITLE
* GENERATE LIGAND                                                               
*  DATE:     1/24/26      5:48:59      CREATED BY USER: charmm-gui              

       129 !NATOM
         1 LIG      1        LIG      C1       CG311    0.315000       12.0110           0
         2 LIG      1        LIG      N1       NG321   -0.984000       14.0070           0
         3 LIG      1        LIG      O1       OG2D1   -0.489000       15.9994           0
         4 LIG      1        LIG      C2       CG2O1    0.433000       12.0110           0
         5 LIG      1        LIG      N2       NG2P1   -0.707000       14.0070           0
         6 LIG      1        LIG      O2       OG2D1   -0.510000       15.9994           0
         7 LIG      1        LIG      C3       CG321   -0.215000       12.0110           0
         8 LIG      1        LIG      N3       NG2P1   -0.749000       14.0070           0
         9 LIG      1        LIG      O3       OG2D1   -0.489000       15.9994           0
        10 LIG      1        LIG      C4       CG321   -0.185000       12.0110           0
        11 LIG      1        LIG      N4       NG2P1   -0.749000       14.0070           0
        12 LIG      1        LIG      O4       OG2D1   -0.509000       15.9994           0
        13 LIG      1        LIG      C5       CG324    0.202000       12.0110           0
        14 LIG      1        LIG      N5       NG2S1   -0.449000       14.0070           0
        15 LIG      1        LIG      O5       OG2D1   -0.576000       15.9994           0
        16 LIG      1        LIG      C6       CG2N1    0.652000       12.0110           0
        17 LIG      1        LIG      N6       NG2S1   -0.441000       14.0070           0
        18 LIG      1        LIG      O6       OG311   -0.600000       15.9994           0
        19 LIG      1        LIG      C7       CG311    0.700000E-01   12.0110           0
        20 LIG      1        LIG      N7       NG311   -0.704000       14.0070           0
        21 LIG      1        LIG      O7       OG2D1   -0.511000       15.9994           0
        22 LIG      1        LIG      C8       CG2O1    0.538000       12.0110           0
        23 LIG      1        LIG      N8       NG2S1   -0.464000       14.0070           0
        24 LIG      1        LIG      O8       OG2D1   -0.537000       15.9994           0
        25 LIG      1        LIG      C9       CG311   -0.780000E-01   12.0110           0
        26 LIG      1        LIG      N9       NG2S1   -0.514000       14.0070           0
        27 LIG      1        LIG      C10      CG331   -0.269000       12.0110           0
        28 LIG      1        LIG      N10      NG2S1   -0.447000       14.0070           0
        29 LIG      1        LIG      C11      CG331   -0.269000       12.0110           0
        30 LIG      1        LIG      N11      NG2S2   -0.677000       14.0070           0
        31 LIG      1        LIG      C12      CG311   -0.760000E-01   12.0110           0
        32 LIG      1        LIG      C13      CG321    0.340000E-01   12.0110           0
        33 LIG      1        LIG      C14      CG321   -0.118000       12.0110           0
        34 LIG      1        LIG      C15      CG311   -0.102000       12.0110           0
        35 LIG      1        LIG      C16      CG331   -0.268000       12.0110           0
        36 LIG      1        LIG      C17      CG331   -0.268000       12.0110           0
        37 LIG      1        LIG      C18      CG311    0.218000       12.0110           0
        38 LIG      1        LIG      C19      CG2O1    0.456000       12.0110           0
        39 LIG      1        LIG      C20      CG321   -0.291000       12.0110           0
        40 LIG      1        LIG      C21      CG2R61   0.180000E-01   12.0110           0
        41 LIG      1        LIG      C22      CG2R61  -0.123000       12.0110           0
        42 LIG      1        LIG      C23      CG2R61  -0.123000       12.0110           0
        43 LIG      1        LIG      C24      CG2R61  -0.112000       12.0110           0
        44 LIG      1        LIG      C25      CG2R61  -0.112000       12.0110           0
        45 LIG      1        LIG      C26      CG2R61  -0.116000       12.0110           0
        46 LIG      1        LIG      C27      CG311    0.790000E-01   12.0110           0
        47 LIG      1        LIG      C28      CG2O1    0.514000       12.0110           0
        48 LIG      1        LIG      C29      CG321   -0.185000       12.0110           0
        49 LIG      1        LIG      C30      CG321   -0.190000       12.0110           0
        50 LIG      1        LIG      C31      CG2O2    0.735000       12.0110           0
        51 LIG      1        LIG      C32      CG311    0.780000E-01   12.0110           0
        52 LIG      1        LIG      C33      CG2O1    0.525000       12.0110           0
        53 LIG      1        LIG      C34      CG331   -0.270000       12.0110           0
        54 LIG      1        LIG      C35      CG311    0.590000E-01   12.0110           0
        55 LIG      1        LIG      C36      CG2O1    0.462000       12.0110           0
        56 LIG      1        LIG      C37      CG321   -0.120000       12.0110           0
        57 LIG      1        LIG      C38      CG321   -0.214000       12.0110           0
        58 LIG      1        LIG      C39      CG321   -0.167000       12.0110           0
        59 LIG      1        LIG      C40      CG331   -0.270000       12.0110           0
        60 LIG      1        LIG      H1       HGA3     0.900000E-01   1.00800           0
        61 LIG      1        LIG      H2       HGA2     0.900000E-01   1.00800           0
        62 LIG      1        LIG      H3       HGA1     0.900000E-01   1.00800           0
        63 LIG      1        LIG      H4       HGA3     0.900000E-01   1.00800           0
        64 LIG      1        LIG      H5       HGA2     0.900000E-01   1.00800           0
        65 LIG      1        LIG      H6       HGA1     0.900000E-01   1.00800           0
        66 LIG      1        LIG      H7       HGA2     0.900000E-01   1.00800           0
        67 LIG      1        LIG      H8       HGA2     0.900000E-01   1.00800           0
        68 LIG      1        LIG      H9       HGR61    0.116000       1.00800           0
        69 LIG      1        LIG      H10      HGR61    0.116000       1.00800           0
        70 LIG      1        LIG      H11      HGP1     0.429000       1.00800           0
        71 LIG      1        LIG      H12      HGA3     0.900000E-01   1.00800           0
        72 LIG      1        LIG      H13      HGA2     0.900000E-01   1.00800           0
        73 LIG      1        LIG      H14      HGA3     0.900000E-01   1.00800           0
        74 LIG      1        LIG      H15      HGA3     0.900000E-01   1.00800           0
        75 LIG      1        LIG      H16      HGA2     0.900000E-01   1.00800           0
        76 LIG      1        LIG      H17      HGP1     0.339000       1.00800           0
        77 LIG      1        LIG      H18      HGA3     0.900000E-01   1.00800           0
        78 LIG      1        LIG      H19      HGR61    0.116000       1.00800           0
        79 LIG      1        LIG      H20      HGA3     0.900000E-01   1.00800           0
        80 LIG      1        LIG      H21      HGA3     0.900000E-01   1.00800           0
        81 LIG      1        LIG      H22      HGA3     0.900000E-01   1.00800           0
        82 LIG      1        LIG      H23      HGA1     0.900000E-01   1.00800           0
        83 LIG      1        LIG      H24      HGA3     0.900000E-01   1.00800           0
        84 LIG      1        LIG      H25      HGA2     0.900000E-01   1.00800           0
        85 LIG      1        LIG      H26      HGA2     0.900000E-01   1.00800           0
        86 LIG      1        LIG      H27      HGA1     0.900000E-01   1.00800           0
        87 LIG      1        LIG      H28      HGA2     0.900000E-01   1.00800           0
        88 LIG      1        LIG      H29      HGA2     0.900000E-01   1.00800           0
        89 LIG      1        LIG      H30      HGA2     0.900000E-01   1.00800           0
        90 LIG      1        LIG      H31      HGA2     0.900000E-01   1.00800           0
        91 LIG      1        LIG      H32      HGA2     0.900000E-01   1.00800           0
        92 LIG      1        LIG      H33      HGA2     0.900000E-01   1.00800           0
        93 LIG      1        LIG      H34      HGA3     0.900000E-01   1.00800           0
        94 LIG      1        LIG      H35      HGA2     0.900000E-01   1.00800           0
        95 LIG      1        LIG      H36      HGR61    0.116000       1.00800           0
        96 LIG      1        LIG      H37      HGA2     0.900000E-01   1.00800           0
        97 LIG      1        LIG      H38      HGA1     0.900000E-01   1.00800           0
        98 LIG      1        LIG      H39      HGA2     0.900000E-01   1.00800           0
        99 LIG      1        LIG      H40      HGA2     0.900000E-01   1.00800           0
       100 LIG      1        LIG      H41      HGA2     0.900000E-01   1.00800           0
       101 LIG      1        LIG      H42      HGR61    0.116000       1.00800           0
       102 LIG      1        LIG      H43      HGA3     0.900000E-01   1.00800           0
       103 LIG      1        LIG      H44      HGA2     0.900000E-01   1.00800           0
       104 LIG      1        LIG      H45      HGA1     0.900000E-01   1.00800           0
       105 LIG      1        LIG      H46      HGA1     0.900000E-01   1.00800           0
       106 LIG      1        LIG      H47      HGA3     0.900000E-01   1.00800           0
       107 LIG      1        LIG      H48      HGA3     0.900000E-01   1.00800           0
       108 LIG      1        LIG      H49      HGA1     0.900000E-01   1.00800           0
       109 LIG      1        LIG      H50      HGA2     0.900000E-01   1.00800           0
       110 LIG      1        LIG      H51      HGA3     0.900000E-01   1.00800           0
       111 LIG      1        LIG      H52      HGA3     0.900000E-01   1.00800           0
       112 LIG      1        LIG      H53      HGP1     0.339000       1.00800           0
       113 LIG      1        LIG      H54      HGA2     0.900000E-01   1.00800           0
       114 LIG      1        LIG      H55      HGA3     0.900000E-01   1.00800           0
       115 LIG      1        LIG      H56      HGA1     0.900000E-01   1.00800           0
       116 LIG      1        LIG      H57      HGA3     0.900000E-01   1.00800           0
       117 LIG      1        LIG      H58      HGPAM2   0.368000       1.00800           0
       118 LIG      1        LIG      H59      HGPAM2   0.368000       1.00800           0
       119 LIG      1        LIG      H60      HGP2     0.431000       1.00800           0
       120 LIG      1        LIG      H61      HGP2     0.424000       1.00800           0
       121 LIG      1        LIG      H62      HGP2     0.424000       1.00800           0
       122 LIG      1        LIG      H63      HGP2     0.424000       1.00800           0
       123 LIG      1        LIG      H64      HGP2     0.424000       1.00800           0
       124 LIG      1        LIG      H65      HGP1     0.269000       1.00800           0
       125 LIG      1        LIG      H66      HGP1     0.316000       1.00800           0
       126 LIG      1        LIG      H67      HGPAM1   0.366000       1.00800           0
       127 LIG      1        LIG      H68      HGP1     0.316000       1.00800           0
       128 LIG      1        LIG      H69      HGP1     0.316000       1.00800           0
       129 LIG      1        LIG      H70      HGP1     0.316000       1.00800           0

       129 !NBOND: bonds
         1        82         1         7         1         2         2       117
         4         3         4         1         5        16         7        94
         7        10         7        87         8       121        10        13
        10        89        11       123        12        47        13        75
        13         5        14         4        16         8        16        11
        31        17        18        70        19        62        19        14
        19        22        20        32        22        17        22         6
        46        23        25        19        26       128        26        47
        27        79        27        25        27       110        28        52
        54        28        29        63        29        83        29        25
        30        55        31        86        31        33        32        64
        32        31        32        99        33        61        33        66
        33        34        34        36        34        35        35        60
        35       106        36       102        36        73        37        97
        37        20        37        38        38        23        38         9
        39        37        40        42        40        39        41        40
        42       101        43        45        43        41        44        69
        44        42        45        44        46       105        46        48
        47        46        48       100        48        49        49       103
        49        50        50        15        50        18        51        65
        51        52        51        26        52        21        51        53
        54        56        54       108        55        24        55        54
        56        57        56       113        57        96        57        90
        58        59        58        57        59        77        59        81
        67        39        68        43        71        53        72        58
        74        36        76        30        78        45        80        27
        84        48        85        13        88        56        91        58
        92        39        93        35        95        41        98        10
       104        25       107        29       109        49       111        53
       112        30       114        59       115        34       116        53
       118         2       119         5       120         8       122        11
       124        14       125        17       126        20       127        23
       129        28

       232 !NTHETA: angles
         2         1         4         2         1         7         2         1        82
         4         1         7         4         1        82         7         1        82
         1         2       117         1         2       118       117         2       118
         1         4         3         1         4        14         3         4        14
        13         5        16        13         5       119        16         5       119
         1         7        10         1         7        87         1         7        94
        10         7        87        10         7        94        87         7        94
        16         8       120        16         8       121       120         8       121
         7        10        13         7        10        89         7        10        98
        13        10        89        13        10        98        89        10        98
        16        11       122        16        11       123       122        11       123
         5        13        10         5        13        75         5        13        85
        10        13        75        10        13        85        75        13        85
         4        14        19         4        14       124        19        14       124
         5        16         8         5        16        11         8        16        11
        22        17        31        22        17       125        31        17       125
        50        18        70        14        19        22        14        19        25
        14        19        62        22        19        25        22        19        62
        25        19        62        32        20        37        32        20       126
        37        20       126         6        22        17         6        22        19
        17        22        19        38        23        46        38        23       127
        46        23       127        19        25        27        19        25        29
        19        25       104        27        25        29        27        25       104
        29        25       104        47        26        51        47        26       128
        51        26       128        25        27        79        25        27        80
        25        27       110        79        27        80        79        27       110
        80        27       110        52        28        54        52        28       129
        54        28       129        25        29        63        25        29        83
        25        29       107        63        29        83        63        29       107
        83        29       107        55        30        76        55        30       112
        76        30       112        17        31        32        17        31        33
        17        31        86        32        31        33        32        31        86
        33        31        86        20        32        31        20        32        64
        20        32        99        31        32        64        31        32        99
        64        32        99        31        33        34        31        33        61
        31        33        66        34        33        61        34        33        66
        61        33        66        33        34        35        33        34        36
        33        34       115        35        34        36        35        34       115
        36        34       115        34        35        60        34        35        93
        34        35       106        60        35        93        60        35       106
        93        35       106        34        36        73        34        36        74
        34        36       102        73        36        74        73        36       102
        74        36       102        20        37        38        20        37        39
        20        37        97        38        37        39        38        37        97
        39        37        97         9        38        23         9        38        37
        23        38        37        37        39        40        37        39        67
        37        39        92        40        39        67        40        39        92
        67        39        92        39        40        41        39        40        42
        41        40        42        40        41        43        40        41        95
        43        41        95        40        42        44        40        42       101
        44        42       101        41        43        45        41        43        68
        45        43        68        42        44        45        42        44        69
        45        44        69        43        45        44        43        45        78
        44        45        78        23        46        47        23        46        48
        23        46       105        47        46        48        47        46       105
        48        46       105        12        47        26        12        47        46
        26        47        46        46        48        49        46        48        84
        46        48       100        49        48        84        49        48       100
        84        48       100        48        49        50        48        49       103
        48        49       109        50        49       103        50        49       109
       103        49       109        15        50        18        15        50        49
        18        50        49        26        51        52        26        51        53
        26        51        65        52        51        53        52        51        65
        53        51        65        21        52        28        21        52        51
        28        52        51        51        53        71        51        53       111
        51        53       116        71        53       111        71        53       116
       111        53       116        28        54        55        28        54        56
        28        54       108        55        54        56        55        54       108
        56        54       108        24        55        30        24        55        54
        30        55        54        54        56        57        54        56        88
        54        56       113        57        56        88        57        56       113
        88        56       113        56        57        58        56        57        90
        56        57        96        58        57        90        58        57        96
        90        57        96        57        58        59        57        58        72
        57        58        91        59        58        72        59        58        91
        72        58        91        58        59        77        58        59        81
        58        59       114        77        59        81        77        59       114
        81        59       114

       335 !NPHI: dihedrals
         1         4        14        19         1         4        14       124
         1         7        10        13         1         7        10        89
         1         7        10        98         2         1         4         3
         2         1         4        14         2         1         7        10
         2         1         7        87         2         1         7        94
         3         4         1         7         3         4         1        82
         3         4        14        19         3         4        14       124
         4         1         2       117         4         1         2       118
         4         1         7        10         4         1         7        87
         4         1         7        94         4        14        19        22
         4        14        19        25         4        14        19        62
         5        13        10         7         5        13        10        89
         5        13        10        98         5        16         8       120
         5        16         8       121         5        16        11       122
         5        16        11       123         6        22        17        31
         6        22        17       125         6        22        19        14
         6        22        19        25         6        22        19        62
         7         1         2       117         7         1         2       118
         7         1         4        14         7        10        13        75
         7        10        13        85         8        16         5        13
         8        16         5       119         8        16        11       122
         8        16        11       123         9        38        23        46
         9        38        23       127         9        38        37        20
         9        38        37        39         9        38        37        97
        10         7         1        82        10        13         5        16
        10        13         5       119        11        16         5        13
        11        16         5       119        11        16         8       120
        11        16         8       121        12        47        26        51
        12        47        26       128        12        47        46        23
        12        47        46        48        12        47        46       105
        13        10         7        87        13        10         7        94
        14         4         1        82        14        19        22        17
        14        19        25        27        14        19        25        29
        14        19        25       104        15        50        18        70
        15        50        49        48        15        50        49       103
        15        50        49       109        16         5        13        75
        16         5        13        85        17        22        19        25
        17        22        19        62        17        31        32        20
        17        31        32        64        17        31        32        99
        17        31        33        34        17        31        33        61
        17        31        33        66        18        50        49        48
        18        50        49       103        18        50        49       109
        19        22        17        31        19        22        17       125
        19        25        27        79        19        25        27        80
        19        25        27       110        19        25        29        63
        19        25        29        83        19        25        29       107
        20        32        31        33        20        32        31        86
        20        37        38        23        20        37        39        40
        20        37        39        67        20        37        39        92
        21        52        28        54        21        52        28       129
        21        52        51        26        21        52        51        53
        21        52        51        65        22        17        31        32
        22        17        31        33        22        17        31        86
        22        19        14       124        22        19        25        27
        22        19        25        29        22        19        25       104
        23        38        37        39        23        38        37        97
        23        46        47        26        23        46        48        49
        23        46        48        84        23        46        48       100
        24        55        30        76        24        55        30       112
        24        55        54        28        24        55        54        56
        24        55        54       108        25        19        14       124
        26        47        46        48        26        47        46       105
        26        51        52        28        26        51        53        71
        26        51        53       111        26        51        53       116
        27        25        19        62        27        25        29        63
        27        25        29        83        27        25        29       107
        28        52        51        53        28        52        51        65
        28        54        55        30        28        54        56        57
        28        54        56        88        28        54        56       113
        29        25        19        62        29        25        27        79
        29        25        27        80        29        25        27       110
        30        55        54        56        30        55        54       108
        31        32        20        37        31        32        20       126
        31        33        34        35        31        33        34        36
        31        33        34       115        32        20        37        38
        32        20        37        39        32        20        37        97
        32        31        17       125        32        31        33        34
        32        31        33        61        32        31        33        66
        33        31        17       125        33        31        32        64
        33        31        32        99        33        34        35        60
        33        34        35        93        33        34        35       106
        33        34        36        73        33        34        36        74
        33        34        36       102        34        33        31        86
        35        34        33        61        35        34        33        66
        35        34        36        73        35        34        36        74
        35        34        36       102        36        34        33        61
        36        34        33        66        36        34        35        60
        36        34        35        93        36        34        35       106
        37        20        32        64        37        20        32        99
        37        38        23        46        37        38        23       127
        37        39        40        41        37        39        40        42
        38        23        46        47        38        23        46        48
        38        23        46       105        38        37        20       126
        38        37        39        40        38        37        39        67
        38        37        39        92        39        37        20       126
        39        40        41        43        39        40        41        95
        39        40        42        44        39        40        42       101
        40        39        37        97        40        41        43        45
        40        41        43        68        40        42        44        45
        40        42        44        69        41        40        39        67
        41        40        39        92        41        40        42        44
        41        40        42       101        41        43        45        44
        41        43        45        78        42        40        39        67
        42        40        39        92        42        40        41        43
        42        40        41        95        42        44        45        43
        42        44        45        78        43        45        44        69
        44        45        43        68        45        43        41        95
        45        44        42       101        46        47        26        51
        46        47        26       128        46        48        49        50
        46        48        49       103        46        48        49       109
        47        26        51        52        47        26        51        53
        47        26        51        65        47        46        23       127
        47        46        48        49        47        46        48        84
        47        46        48       100        48        46        23       127
        49        48        46       105        49        50        18        70
        50        49        48        84        50        49        48       100
        51        52        28        54        51        52        28       129
        52        28        54        55        52        28        54        56
        52        28        54       108        52        51        26       128
        52        51        53        71        52        51        53       111
        52        51        53       116        53        51        26       128
        54        55        30        76        54        55        30       112
        54        56        57        58        54        56        57        90
        54        56        57        96        55        54        28       129
        55        54        56        57        55        54        56        88
        55        54        56       113        56        54        28       129
        56        57        58        59        56        57        58        72
        56        57        58        91        57        56        54       108
        57        58        59        77        57        58        59        81
        57        58        59       114        58        57        56        88
        58        57        56       113        59        58        57        90
        59        58        57        96        60        35        34       115
        61        33        31        86        61        33        34       115
        62        19        14       124        62        19        25       104
        63        29        25       104        64        32        20       126
        64        32        31        86        65        51        26       128
        65        51        53        71        65        51        53       111
        65        51        53       116        66        33        31        86
        66        33        34       115        67        39        37        97
        68        43        41        95        68        43        45        78
        69        44        42       101        69        44        45        78
        72        58        57        90        72        58        57        96
        72        58        59        77        72        58        59        81
        72        58        59       114        73        36        34       115
        74        36        34       115        75        13         5       119
        75        13        10        89        75        13        10        98
        77        59        58        91        79        27        25       104
        80        27        25       104        81        59        58        91
        82         1         2       117        82         1         2       118
        82         1         7        87        82         1         7        94
        83        29        25       104        84        48        46       105
        84        48        49       103        84        48        49       109
        85        13         5       119        85        13        10        89
        85        13        10        98        86        31        17       125
        86        31        32        99        87         7        10        89
        87         7        10        98        88        56        54       108
        88        56        57        90        88        56        57        96
        89        10         7        94        90        57        56       113
        90        57        58        91        91        58        57        96
        91        58        59       114        92        39        37        97
        93        35        34       115        94         7        10        98
        96        57        56       113        97        37        20       126
        99        32        20       126       100        48        46       105
       100        48        49       103       100        48        49       109
       102        36        34       115       104        25        27       110
       104        25        29       107       105        46        23       127
       106        35        34       115       108        54        28       129
       108        54        56       113

         8 !NIMPHI: impropers
         4         1        14         3        16         5         8        11
        22        19        17         6        38        37        23         9
        47        46        26        12        50        49        15        18
        52        51        28        21        55        54        30        24

         0 !NDON: donors


         0 !NACC: acceptors


         0 !NNB

         0         0         0         0         0         0         0         0
         0         0         0         0         0         0         0         0
         0         0         0         0         0         0         0         0
         0         0         0         0         0         0         0         0
         0         0         0         0         0         0         0         0
         0         0         0         0         0         0         0         0
         0         0         0         0         0         0         0         0
         0         0         0         0         0         0         0         0
         0         0         0         0         0         0         0         0
         0         0         0         0         0         0         0         0
         0         0         0         0         0         0         0         0
         0         0         0         0         0         0         0         0
         0         0         0         0         0         0         0         0
         0         0         0         0         0         0         0         0
         0         0         0         0         0         0         0         0
         0         0         0         0         0         0         0         0
         0

         1         0 !NGRP NST2
         0         2         0

         0         0 !NUMLP NUMLPH

         0 !NCRTERM: cross-terms

