* GENERATED BY CHARMM-GUI (HTTP://WWW.CHARMM-GUI.ORG)
*
        59  EXT
         1         1  LIG       C1              7.5650000000       16.2690000000       34.1090000000  LIG       1               0.0000000000
         2         1  LIG       N1              8.8570000000       16.8290000000       33.7940000000  LIG       1               0.0000000000
         3         1  LIG       O1              6.2520000000       18.2690000000       33.6990000000  LIG       1               0.0000000000
         4         1  LIG       C2              6.3830000000       17.0500000000       33.4760000000  LIG       1               0.0000000000
         5         1  LIG       N2              7.0580000000       13.4530000000       37.1280000000  LIG       1               0.0000000000
         6         1  LIG       O2              3.3460000000       15.1950000000       33.9290000000  LIG       1               0.0000000000
         7         1  LIG       C3              7.3060000000       16.2540000000       35.6280000000  LIG       1               0.0000000000
         8         1  LIG       N3              5.3410000000       13.7440000000       38.7840000000  LIG       1               0.0000000000
         9         1  LIG       O3             -2.8780000000       15.4830000000       33.6400000000  LIG       1               0.0000000000
        10         1  LIG       C4              6.0600000000       15.4830000000       36.0070000000  LIG       1               0.0000000000
        11         1  LIG       N4              7.4920000000       12.9550000000       39.4210000000  LIG       1               0.0000000000
        12         1  LIG       O4             -7.0990000000       18.0180000000       32.8980000000  LIG       1               0.0000000000
        13         1  LIG       C5              6.2550000000       13.9710000000       36.0400000000  LIG       1               0.0000000000
        14         1  LIG       N5              5.5120000000       16.3490000000       32.6670000000  LIG       1               0.0000000000
        15         1  LIG       O5             -7.5150000000       15.9500000000       38.3500000000  LIG       1               0.0000000000
        16         1  LIG       C6              6.6250000000       13.4000000000       38.4410000000  LIG       1               0.0000000000
        17         1  LIG       N6              2.1250000000       17.1260000000       33.7340000000  LIG       1               0.0000000000
        18         1  LIG       O6             -6.1310000000       17.6640000000       38.1570000000  LIG       1               0.0000000000
        19         1  LIG       C7              4.1960000000       16.8510000000       32.3440000000  LIG       1               0.0000000000
        20         1  LIG       N7             -0.6420000000       16.9890000000       32.8100000000  LIG       1               0.0000000000
        21         1  LIG       O7             -9.4930000000       13.9850000000       33.2840000000  LIG       1               0.0000000000
        22         1  LIG       C8              3.1700000000       16.3130000000       33.3880000000  LIG       1               0.0000000000
        23         1  LIG       N8             -4.3200000000       17.2300000000       33.2870000000  LIG       1               0.0000000000
        24         1  LIG       O8            -13.1820000000       12.6640000000       31.9330000000  LIG       1               0.0000000000
        25         1  LIG       C9              3.7310000000       16.4380000000       30.9290000000  LIG       1               0.0000000000
        26         1  LIG       N9             -7.4200000000       15.7540000000       32.7050000000  LIG       1               0.0000000000
        27         1  LIG       C10             2.4070000000       17.0960000000       30.5960000000  LIG       1               0.0000000000
        28         1  LIG       N10           -11.0620000000       15.4020000000       32.3830000000  LIG       1               0.0000000000
        29         1  LIG       C11             4.7690000000       16.8170000000       29.8930000000  LIG       1               0.0000000000
        30         1  LIG       N11           -13.2490000000       14.4960000000       30.5890000000  LIG       1               0.0000000000
        31         1  LIG       C12             1.0620000000       16.6990000000       34.6220000000  LIG       1               0.0000000000
        32         1  LIG       C13            -0.3200000000       17.2710000000       34.1940000000  LIG       1               0.0000000000
        33         1  LIG       C14             1.2830000000       17.1120000000       36.0880000000  LIG       1               0.0000000000
        34         1  LIG       C15             2.3800000000       16.3130000000       36.7770000000  LIG       1               0.0000000000
        35         1  LIG       C16             2.6760000000       16.9110000000       38.1370000000  LIG       1               0.0000000000
        36         1  LIG       C17             2.0020000000       14.8510000000       36.9100000000  LIG       1               0.0000000000
        37         1  LIG       C18            -1.9820000000       17.4000000000       32.4230000000  LIG       1               0.0000000000
        38         1  LIG       C19            -3.0970000000       16.6160000000       33.1620000000  LIG       1               0.0000000000
        39         1  LIG       C20            -2.1910000000       17.2270000000       30.9070000000  LIG       1               0.0000000000
        40         1  LIG       C21            -3.3810000000       17.9640000000       30.4020000000  LIG       1               0.0000000000
        41         1  LIG       C22            -4.3970000000       17.2760000000       29.7280000000  LIG       1               0.0000000000
        42         1  LIG       C23            -3.4700000000       19.3550000000       30.5400000000  LIG       1               0.0000000000
        43         1  LIG       C24            -5.4890000000       17.9690000000       29.2070000000  LIG       1               0.0000000000
        44         1  LIG       C25            -4.5640000000       20.0450000000       30.0200000000  LIG       1               0.0000000000
        45         1  LIG       C26            -5.5750000000       19.3530000000       29.3530000000  LIG       1               0.0000000000
        46         1  LIG       C27            -5.4320000000       16.6060000000       33.9630000000  LIG       1               0.0000000000
        47         1  LIG       C28            -6.7270000000       16.8550000000       33.1480000000  LIG       1               0.0000000000
        48         1  LIG       C29            -5.6660000000       17.1630000000       35.3800000000  LIG       1               0.0000000000
        49         1  LIG       C30            -6.5260000000       16.2180000000       36.1890000000  LIG       1               0.0000000000
        50         1  LIG       C31            -6.6680000000       16.7050000000       37.5950000000  LIG       1               0.0000000000
        51         1  LIG       C32            -8.6520000000       15.8640000000       31.9640000000  LIG       1               0.0000000000
        52         1  LIG       C33            -9.7650000000       15.0000000000       32.6160000000  LIG       1               0.0000000000
        53         1  LIG       C34            -8.5250000000       15.4050000000       30.5100000000  LIG       1               0.0000000000
        54         1  LIG       C35           -12.2080000000       14.6750000000       32.8760000000  LIG       1               0.0000000000
        55         1  LIG       C36           -12.9160000000       13.8680000000       31.7620000000  LIG       1               0.0000000000
        56         1  LIG       C37           -13.2340000000       15.5880000000       33.5700000000  LIG       1               0.0000000000
        57         1  LIG       C38           -14.3270000000       14.7950000000       34.2580000000  LIG       1               0.0000000000
        58         1  LIG       C39           -15.6060000000       14.7420000000       33.4460000000  LIG       1               0.0000000000
        59         1  LIG       C40           -16.6900000000       13.9910000000       34.1790000000  LIG       1               0.0000000000
