;;
;; Generated by CHARMM-GUI (http://www.charmm-gui.org) v1.7
;;
;; psf2itp_mol.py
;;
;; Correspondance:
;; jul316@lehigh.edu or wonpil@lehigh.edu
;;
;; GROMACS topology file for LIG
;;


[ moleculetype ]
; name	nrexcl
LIG	     3

[ atoms ]
; nr	type	resnr	residu	atom	cgnr	charge	mass
     1      NG3P3      1      LIG     N1      1     -0.286    14.0070   ; qtot -0.286
     2      CG314      1      LIG     C1      2      0.227    12.0110   ; qtot -0.059
     3      CG311      1      LIG     C2      3      0.070    12.0110   ; qtot  0.011
     4      CG311      1      LIG     C3      4     -0.076    12.0110   ; qtot -0.065
     5      CG311      1      LIG     C4      5      0.218    12.0110   ; qtot  0.153
     6      CG311      1      LIG     C5      6      0.079    12.0110   ; qtot  0.232
     7      CG311      1      LIG     C6      7      0.078    12.0110   ; qtot  0.310
     8      CG311      1      LIG     C7      8      0.059    12.0110   ; qtot  0.369
     9      CG2O1      1      LIG     C8      9      0.370    12.0110   ; qtot  0.739
    10      OG2D1      1      LIG     O1     10     -0.474    15.9994   ; qtot  0.265
    11      CG321      1      LIG     C9     11     -0.154    12.0110   ; qtot  0.111
    12      CG311      1      LIG    C10     12     -0.078    12.0110   ; qtot  0.033
    13      CG321      1      LIG    C11     13     -0.118    12.0110   ; qtot -0.085
    14      CG321      1      LIG    C12     14     -0.291    12.0110   ; qtot -0.376
    15      CG321      1      LIG    C13     15     -0.185    12.0110   ; qtot -0.561
    16      CG331      1      LIG    C14     16     -0.270    12.0110   ; qtot -0.831
    17      CG321      1      LIG    C15     17     -0.120    12.0110   ; qtot -0.951
    18      CG321      1      LIG    C16     18     -0.084    12.0110   ; qtot -1.035
    19      CG331      1      LIG    C17     19     -0.269    12.0110   ; qtot -1.304
    20      CG331      1      LIG    C18     20     -0.269    12.0110   ; qtot -1.573
    21      CG311      1      LIG    C19     21     -0.102    12.0110   ; qtot -1.675
    22     CG2R61      1      LIG    C20     22      0.018    12.0110   ; qtot -1.657
    23      CG321      1      LIG    C21     23     -0.190    12.0110   ; qtot -1.847
    24      CG321      1      LIG    C22     24     -0.214    12.0110   ; qtot -2.061
    25      CG324      1      LIG    C23     25      0.204    12.0110   ; qtot -1.857
    26     CG2R61      1      LIG    C24     26     -0.123    12.0110   ; qtot -1.980
    27      CG331      1      LIG    C25     27     -0.268    12.0110   ; qtot -2.248
    28     CG2R61      1      LIG    C26     28     -0.123    12.0110   ; qtot -2.371
    29      CG331      1      LIG    C27     29     -0.268    12.0110   ; qtot -2.639
    30      CG2O2      1      LIG    C28     30      0.735    12.0110   ; qtot -1.904
    31      CG321      1      LIG    C29     31     -0.167    12.0110   ; qtot -2.071
    32      CG331      1      LIG    C30     32     -0.270    12.0110   ; qtot -2.341
    33     CG2R61      1      LIG    C31     33     -0.112    12.0110   ; qtot -2.453
    34     CG2R61      1      LIG    C32     34     -0.112    12.0110   ; qtot -2.565
    35      NG2P1      1      LIG     N2     35     -0.707    14.0070   ; qtot -3.272
    36      OG2D1      1      LIG     O2     36     -0.576    15.9994   ; qtot -3.848
    37      OG311      1      LIG     O3     37     -0.600    15.9994   ; qtot -4.448
    38      CG2N1      1      LIG    C33     38      0.652    12.0110   ; qtot -3.796
    39     CG2R61      1      LIG    C34     39     -0.116    12.0110   ; qtot -3.912
    40      NG2P1      1      LIG     N3     40     -0.749    14.0070   ; qtot -4.661
    41      NG2P1      1      LIG     N4     41     -0.749    14.0070   ; qtot -5.410
    42      CG2O1      1      LIG    C35     42      0.538    12.0110   ; qtot -4.872
    43      NG2S1      1      LIG     N5     43     -0.321    14.0070   ; qtot -5.193
    44      OG2D1      1      LIG     O4     44     -0.510    15.9994   ; qtot -5.703
    45      CG321      1      LIG    C36     45      0.034    12.0110   ; qtot -5.669
    46      NG2S1      1      LIG     N6     46     -0.441    14.0070   ; qtot -6.110
    47      OG2D1      1      LIG     O5     47     -0.489    15.9994   ; qtot -6.599
    48      CG2O1      1      LIG    C37     48      0.456    12.0110   ; qtot -6.143
    49      NG311      1      LIG     N7     49     -0.704    14.0070   ; qtot -6.847
    50      OG2D1      1      LIG     O6     50     -0.509    15.9994   ; qtot -7.356
    51      CG2O1      1      LIG    C38     51      0.514    12.0110   ; qtot -6.842
    52      NG2S1      1      LIG     N8     52     -0.464    14.0070   ; qtot -7.306
    53      OG2D1      1      LIG     O7     53     -0.511    15.9994   ; qtot -7.817
    54      CG2O1      1      LIG    C39     54      0.525    12.0110   ; qtot -7.292
    55      NG2S1      1      LIG     N9     55     -0.514    14.0070   ; qtot -7.806
    56      OG2D1      1      LIG     O8     56     -0.537    15.9994   ; qtot -8.343
    57      CG2O1      1      LIG    C40     57      0.462    12.0110   ; qtot -7.881
    58      NG2S1      1      LIG    N10     58     -0.447    14.0070   ; qtot -8.328
    59      NG2S2      1      LIG    N11     59     -0.677    14.0070   ; qtot -9.005
    60       HGP2      1      LIG     H1     60      0.293     1.0080   ; qtot -8.712
    61       HGP1      1      LIG     H2     61      0.316     1.0080   ; qtot -8.396
    62       HGP2      1      LIG     H3     62      0.293     1.0080   ; qtot -8.103
    63       HGP2      1      LIG     H4     63      0.431     1.0080   ; qtot -7.672
    64       HGP2      1      LIG     H5     64      0.424     1.0080   ; qtot -7.248
    65       HGP2      1      LIG     H6     65      0.424     1.0080   ; qtot -6.824
    66       HGP2      1      LIG     H7     66      0.424     1.0080   ; qtot -6.400
    67       HGP2      1      LIG     H8     67      0.424     1.0080   ; qtot -5.976
    68       HGP1      1      LIG     H9     68      0.272     1.0080   ; qtot -5.704
    69       HGP2      1      LIG    H10     69      0.293     1.0080   ; qtot -5.411
    70     HGPAM1      1      LIG    H11     70      0.366     1.0080   ; qtot -5.045
    71       HGP1      1      LIG    H12     71      0.316     1.0080   ; qtot -4.729
    72       HGP1      1      LIG    H13     72      0.316     1.0080   ; qtot -4.413
    73       HGP1      1      LIG    H14     73      0.316     1.0080   ; qtot -4.097
    74       HGP1      1      LIG    H15     74      0.339     1.0080   ; qtot -3.758
    75       HGP1      1      LIG    H16     75      0.339     1.0080   ; qtot -3.419
    76       HGA1      1      LIG    H17     76      0.090     1.0080   ; qtot -3.329
    77       HGA1      1      LIG    H18     77      0.090     1.0080   ; qtot -3.239
    78       HGA1      1      LIG    H19     78      0.090     1.0080   ; qtot -3.149
    79       HGA1      1      LIG    H20     79      0.090     1.0080   ; qtot -3.059
    80       HGA1      1      LIG    H21     80      0.090     1.0080   ; qtot -2.969
    81       HGA1      1      LIG    H22     81      0.090     1.0080   ; qtot -2.879
    82       HGA1      1      LIG    H23     82      0.090     1.0080   ; qtot -2.789
    83       HGA2      1      LIG    H24     83      0.090     1.0080   ; qtot -2.699
    84       HGA2      1      LIG    H25     84      0.090     1.0080   ; qtot -2.609
    85       HGA1      1      LIG    H26     85      0.090     1.0080   ; qtot -2.519
    86       HGA2      1      LIG    H27     86      0.090     1.0080   ; qtot -2.429
    87       HGA2      1      LIG    H28     87      0.090     1.0080   ; qtot -2.339
    88       HGA2      1      LIG    H29     88      0.090     1.0080   ; qtot -2.249
    89       HGA2      1      LIG    H30     89      0.090     1.0080   ; qtot -2.159
    90       HGA2      1      LIG    H31     90      0.090     1.0080   ; qtot -2.069
    91       HGA2      1      LIG    H32     91      0.090     1.0080   ; qtot -1.979
    92       HGA3      1      LIG    H33     92      0.090     1.0080   ; qtot -1.889
    93       HGA3      1      LIG    H34     93      0.090     1.0080   ; qtot -1.799
    94       HGA3      1      LIG    H35     94      0.090     1.0080   ; qtot -1.709
    95       HGA2      1      LIG    H36     95      0.090     1.0080   ; qtot -1.619
    96       HGA2      1      LIG    H37     96      0.090     1.0080   ; qtot -1.529
    97       HGA2      1      LIG    H38     97      0.090     1.0080   ; qtot -1.439
    98       HGA2      1      LIG    H39     98      0.090     1.0080   ; qtot -1.349
    99       HGA3      1      LIG    H40     99      0.090     1.0080   ; qtot -1.259
   100       HGA3      1      LIG    H41    100      0.090     1.0080   ; qtot -1.169
   101       HGA3      1      LIG    H42    101      0.090     1.0080   ; qtot -1.079
   102       HGA3      1      LIG    H43    102      0.090     1.0080   ; qtot -0.989
   103       HGA3      1      LIG    H44    103      0.090     1.0080   ; qtot -0.899
   104       HGA3      1      LIG    H45    104      0.090     1.0080   ; qtot -0.809
   105       HGA1      1      LIG    H46    105      0.090     1.0080   ; qtot -0.719
   106       HGA2      1      LIG    H47    106      0.090     1.0080   ; qtot -0.629
   107       HGA2      1      LIG    H48    107      0.090     1.0080   ; qtot -0.539
   108       HGA2      1      LIG    H49    108      0.090     1.0080   ; qtot -0.449
   109       HGA2      1      LIG    H50    109      0.090     1.0080   ; qtot -0.359
   110       HGA2      1      LIG    H51    110      0.090     1.0080   ; qtot -0.269
   111       HGA2      1      LIG    H52    111      0.090     1.0080   ; qtot -0.179
   112      HGR61      1      LIG    H53    112      0.116     1.0080   ; qtot -0.063
   113       HGA3      1      LIG    H54    113      0.090     1.0080   ; qtot  0.027
   114       HGA3      1      LIG    H55    114      0.090     1.0080   ; qtot  0.117
   115       HGA3      1      LIG    H56    115      0.090     1.0080   ; qtot  0.207
   116      HGR61      1      LIG    H57    116      0.116     1.0080   ; qtot  0.323
   117       HGA3      1      LIG    H58    117      0.090     1.0080   ; qtot  0.413
   118       HGA3      1      LIG    H59    118      0.090     1.0080   ; qtot  0.503
   119       HGA3      1      LIG    H60    119      0.090     1.0080   ; qtot  0.593
   120       HGA2      1      LIG    H61    120      0.090     1.0080   ; qtot  0.683
   121       HGA2      1      LIG    H62    121      0.090     1.0080   ; qtot  0.773
   122       HGA3      1      LIG    H63    122      0.090     1.0080   ; qtot  0.863
   123       HGA3      1      LIG    H64    123      0.090     1.0080   ; qtot  0.953
   124       HGA3      1      LIG    H65    124      0.090     1.0080   ; qtot  1.043
   125      HGR61      1      LIG    H66    125      0.116     1.0080   ; qtot  1.159
   126      HGR61      1      LIG    H67    126      0.116     1.0080   ; qtot  1.275
   127       HGP1      1      LIG    H68    127      0.429     1.0080   ; qtot  1.704
   128      HGR61      1      LIG    H69    128      0.116     1.0080   ; qtot  1.820
   129       HGA2      1      LIG    H70    129      0.090     1.0080   ; qtot  1.910
   130       HGA2      1      LIG    H71    130      0.090     1.0080   ; qtot  2.000

[ bonds ]
; ai	aj	funct	b0	Kb
    1     2     1
    1    60     1
    1    62     1
    1    69     1
    2     9     1
    2    11     1
    2    76     1
    3    12     1
    3    42     1
    3    43     1
    3    77     1
    4    13     1
    4    45     1
    4    46     1
    4    78     1
    5    14     1
    5    48     1
    5    49     1
    5    79     1
    6    15     1
    6    51     1
    6    52     1
    6    80     1
    7    16     1
    7    54     1
    7    55     1
    7    81     1
    8    17     1
    8    57     1
    8    58     1
    8    82     1
    9    10     1
    9    43     1
   11    18     1
   11    83     1
   11    84     1
   12    19     1
   12    20     1
   12    85     1
   13    21     1
   13    86     1
   13    87     1
   14    22     1
   14    88     1
   14    89     1
   15    23     1
   15    90     1
   15    91     1
   16    92     1
   16    93     1
   16    94     1
   17    24     1
   17    95     1
   17    96     1
   18    25     1
   18    97     1
   18    98     1
   19    99     1
   19   100     1
   19   101     1
   20   102     1
   20   103     1
   20   104     1
   21    27     1
   21    29     1
   21   105     1
   22    26     1
   22    28     1
   23    30     1
   23   106     1
   23   107     1
   24    31     1
   24   108     1
   24   109     1
   25    35     1
   25   110     1
   25   111     1
   26    33     1
   26   112     1
   27   113     1
   27   114     1
   27   115     1
   28    34     1
   28   116     1
   29   117     1
   29   118     1
   29   119     1
   30    36     1
   30    37     1
   31    32     1
   31   120     1
   31   121     1
   32   122     1
   32   123     1
   32   124     1
   33    39     1
   33   125     1
   34    39     1
   34   126     1
   35    38     1
   35    63     1
   37   127     1
   38    40     1
   38    41     1
   39   128     1
   40    64     1
   40    65     1
   41    66     1
   41    67     1
   42    44     1
   42    46     1
   43    68     1
   45    49     1
   45   129     1
   45   130     1
   46    61     1
   47    48     1
   48    52     1
   49    70     1
   50    51     1
   51    55     1
   52    71     1
   53    54     1
   54    58     1
   55    72     1
   56    57     1
   57    59     1
   58    73     1
   59    74     1
   59    75     1

[ pairs ]
; ai	aj	funct	c6	c12
    1    10     1 
    1    18     1 
    1    43     1 
    1    83     1 
    1    84     1 
    2     3     1 
    2    25     1 
    2    68     1 
    2    97     1 
    2    98     1 
    3     4     1 
    3    10     1 
    3    61     1 
    3    99     1 
    3   100     1 
    3   101     1 
    3   102     1 
    3   103     1 
    3   104     1 
    4     5     1 
    4    27     1 
    4    29     1 
    4    44     1 
    4    70     1 
    4   105     1 
    5     6     1 
    5    26     1 
    5    28     1 
    5    71     1 
    5   129     1 
    5   130     1 
    6     7     1 
    6    30     1 
    6    47     1 
    6    72     1 
    6   106     1 
    6   107     1 
    7     8     1 
    7    50     1 
    7    73     1 
    8    31     1 
    8    53     1 
    8    74     1 
    8    75     1 
    8   108     1 
    8   109     1 
    9    12     1 
    9    18     1 
    9    42     1 
    9    60     1 
    9    62     1 
    9    69     1 
    9    77     1 
    9    83     1 
    9    84     1 
   10    11     1 
   10    68     1 
   10    76     1 
   11    35     1 
   11    43     1 
   11    60     1 
   11    62     1 
   11    69     1 
   11   110     1 
   11   111     1 
   12    44     1 
   12    46     1 
   12    68     1 
   13    42     1 
   13    49     1 
   13    61     1 
   13   113     1 
   13   114     1 
   13   115     1 
   13   117     1 
   13   118     1 
   13   119     1 
   13   129     1 
   13   130     1 
   14    33     1 
   14    34     1 
   14    45     1 
   14    47     1 
   14    52     1 
   14    70     1 
   14   112     1 
   14   116     1 
   15    36     1 
   15    37     1 
   15    48     1 
   15    50     1 
   15    55     1 
   15    71     1 
   16    51     1 
   16    53     1 
   16    58     1 
   16    72     1 
   17    32     1 
   17    54     1 
   17    56     1 
   17    59     1 
   17    73     1 
   17   120     1 
   17   121     1 
   18    38     1 
   18    63     1 
   18    76     1 
   19    42     1 
   19    43     1 
   19    77     1 
   19   102     1 
   19   103     1 
   19   104     1 
   20    42     1 
   20    43     1 
   20    77     1 
   20    99     1 
   20   100     1 
   20   101     1 
   21    45     1 
   21    46     1 
   21    78     1 
   22    39     1 
   22    48     1 
   22    49     1 
   22    79     1 
   22   125     1 
   22   126     1 
   23    51     1 
   23    52     1 
   23    80     1 
   23   127     1 
   24    57     1 
   24    58     1 
   24    82     1 
   24   122     1 
   24   123     1 
   24   124     1 
   25    40     1 
   25    41     1 
   25    83     1 
   25    84     1 
   26    34     1 
   26    88     1 
   26    89     1 
   26   116     1 
   26   128     1 
   27    86     1 
   27    87     1 
   27   117     1 
   27   118     1 
   27   119     1 
   28    33     1 
   28    88     1 
   28    89     1 
   28   112     1 
   28   128     1 
   29    86     1 
   29    87     1 
   29   113     1 
   29   114     1 
   29   115     1 
   30    90     1 
   30    91     1 
   31    95     1 
   31    96     1 
   32   108     1 
   32   109     1 
   33   126     1 
   34   125     1 
   35    64     1 
   35    65     1 
   35    66     1 
   35    67     1 
   35    97     1 
   35    98     1 
   36   106     1 
   36   107     1 
   36   127     1 
   37   106     1 
   37   107     1 
   38   110     1 
   38   111     1 
   39   112     1 
   39   116     1 
   40    63     1 
   40    66     1 
   40    67     1 
   41    63     1 
   41    64     1 
   41    65     1 
   42    45     1 
   42    68     1 
   42    78     1 
   42    85     1 
   43    44     1 
   43    46     1 
   43    76     1 
   43    85     1 
   44    61     1 
   44    77     1 
   45    48     1 
   45    61     1 
   45    79     1 
   45    86     1 
   45    87     1 
   46    49     1 
   46    77     1 
   46    86     1 
   46    87     1 
   46   129     1 
   46   130     1 
   47    49     1 
   47    71     1 
   47    79     1 
   48    51     1 
   48    70     1 
   48    80     1 
   48    88     1 
   48    89     1 
   49    52     1 
   49    78     1 
   49    88     1 
   49    89     1 
   50    52     1 
   50    72     1 
   50    80     1 
   51    54     1 
   51    71     1 
   51    81     1 
   51    90     1 
   51    91     1 
   52    55     1 
   52    79     1 
   52    90     1 
   52    91     1 
   53    55     1 
   53    73     1 
   53    81     1 
   54    57     1 
   54    72     1 
   54    82     1 
   54    92     1 
   54    93     1 
   54    94     1 
   55    58     1 
   55    80     1 
   55    92     1 
   55    93     1 
   55    94     1 
   56    58     1 
   56    74     1 
   56    75     1 
   56    82     1 
   57    73     1 
   57    95     1 
   57    96     1 
   58    59     1 
   58    81     1 
   58    95     1 
   58    96     1 
   59    82     1 
   60    76     1 
   61    78     1 
   62    76     1 
   63   110     1 
   63   111     1 
   68    77     1 
   69    76     1 
   70    79     1 
   70   129     1 
   70   130     1 
   71    80     1 
   72    81     1 
   73    82     1 
   76    83     1 
   76    84     1 
   77    85     1 
   78    86     1 
   78    87     1 
   78   129     1 
   78   130     1 
   79    88     1 
   79    89     1 
   80    90     1 
   80    91     1 
   81    92     1 
   81    93     1 
   81    94     1 
   82    95     1 
   82    96     1 
   83    97     1 
   83    98     1 
   84    97     1 
   84    98     1 
   85    99     1 
   85   100     1 
   85   101     1 
   85   102     1 
   85   103     1 
   85   104     1 
   86   105     1 
   87   105     1 
   90   106     1 
   90   107     1 
   91   106     1 
   91   107     1 
   95   108     1 
   95   109     1 
   96   108     1 
   96   109     1 
   97   110     1 
   97   111     1 
   98   110     1 
   98   111     1 
  105   113     1 
  105   114     1 
  105   115     1 
  105   117     1 
  105   118     1 
  105   119     1 
  108   120     1 
  108   121     1 
  109   120     1 
  109   121     1 
  112   125     1 
  116   126     1 
  120   122     1 
  120   123     1 
  120   124     1 
  121   122     1 
  121   123     1 
  121   124     1 
  125   128     1 
  126   128     1 

[ angles ] 
; ai	aj	ak	funct	th0	cth	S0	Kub
    2     1    60     5
    2     1    62     5
    2     1    69     5
   60     1    62     5
   60     1    69     5
   62     1    69     5
    1     2     9     5
    1     2    11     5
    1     2    76     5
    9     2    11     5
    9     2    76     5
   11     2    76     5
   12     3    42     5
   12     3    43     5
   12     3    77     5
   42     3    43     5
   42     3    77     5
   43     3    77     5
   13     4    45     5
   13     4    46     5
   13     4    78     5
   45     4    46     5
   45     4    78     5
   46     4    78     5
   14     5    48     5
   14     5    49     5
   14     5    79     5
   48     5    49     5
   48     5    79     5
   49     5    79     5
   15     6    51     5
   15     6    52     5
   15     6    80     5
   51     6    52     5
   51     6    80     5
   52     6    80     5
   16     7    54     5
   16     7    55     5
   16     7    81     5
   54     7    55     5
   54     7    81     5
   55     7    81     5
   17     8    57     5
   17     8    58     5
   17     8    82     5
   57     8    58     5
   57     8    82     5
   58     8    82     5
    2     9    10     5
    2     9    43     5
   10     9    43     5
    2    11    18     5
    2    11    83     5
    2    11    84     5
   18    11    83     5
   18    11    84     5
   83    11    84     5
    3    12    19     5
    3    12    20     5
    3    12    85     5
   19    12    20     5
   19    12    85     5
   20    12    85     5
    4    13    21     5
    4    13    86     5
    4    13    87     5
   21    13    86     5
   21    13    87     5
   86    13    87     5
    5    14    22     5
    5    14    88     5
    5    14    89     5
   22    14    88     5
   22    14    89     5
   88    14    89     5
    6    15    23     5
    6    15    90     5
    6    15    91     5
   23    15    90     5
   23    15    91     5
   90    15    91     5
    7    16    92     5
    7    16    93     5
    7    16    94     5
   92    16    93     5
   92    16    94     5
   93    16    94     5
    8    17    24     5
    8    17    95     5
    8    17    96     5
   24    17    95     5
   24    17    96     5
   95    17    96     5
   11    18    25     5
   11    18    97     5
   11    18    98     5
   25    18    97     5
   25    18    98     5
   97    18    98     5
   12    19    99     5
   12    19   100     5
   12    19   101     5
   99    19   100     5
   99    19   101     5
  100    19   101     5
   12    20   102     5
   12    20   103     5
   12    20   104     5
  102    20   103     5
  102    20   104     5
  103    20   104     5
   13    21    27     5
   13    21    29     5
   13    21   105     5
   27    21    29     5
   27    21   105     5
   29    21   105     5
   14    22    26     5
   14    22    28     5
   26    22    28     5
   15    23    30     5
   15    23   106     5
   15    23   107     5
   30    23   106     5
   30    23   107     5
  106    23   107     5
   17    24    31     5
   17    24   108     5
   17    24   109     5
   31    24   108     5
   31    24   109     5
  108    24   109     5
   18    25    35     5
   18    25   110     5
   18    25   111     5
   35    25   110     5
   35    25   111     5
  110    25   111     5
   22    26    33     5
   22    26   112     5
   33    26   112     5
   21    27   113     5
   21    27   114     5
   21    27   115     5
  113    27   114     5
  113    27   115     5
  114    27   115     5
   22    28    34     5
   22    28   116     5
   34    28   116     5
   21    29   117     5
   21    29   118     5
   21    29   119     5
  117    29   118     5
  117    29   119     5
  118    29   119     5
   23    30    36     5
   23    30    37     5
   36    30    37     5
   24    31    32     5
   24    31   120     5
   24    31   121     5
   32    31   120     5
   32    31   121     5
  120    31   121     5
   31    32   122     5
   31    32   123     5
   31    32   124     5
  122    32   123     5
  122    32   124     5
  123    32   124     5
   26    33    39     5
   26    33   125     5
   39    33   125     5
   28    34    39     5
   28    34   126     5
   39    34   126     5
   25    35    38     5
   25    35    63     5
   38    35    63     5
   30    37   127     5
   35    38    40     5
   35    38    41     5
   40    38    41     5
   33    39    34     5
   33    39   128     5
   34    39   128     5
   38    40    64     5
   38    40    65     5
   64    40    65     5
   38    41    66     5
   38    41    67     5
   66    41    67     5
    3    42    44     5
    3    42    46     5
   44    42    46     5
    3    43     9     5
    3    43    68     5
    9    43    68     5
    4    45    49     5
    4    45   129     5
    4    45   130     5
   49    45   129     5
   49    45   130     5
  129    45   130     5
    4    46    42     5
    4    46    61     5
   42    46    61     5
    5    48    47     5
    5    48    52     5
   47    48    52     5
    5    49    45     5
    5    49    70     5
   45    49    70     5
    6    51    50     5
    6    51    55     5
   50    51    55     5
    6    52    48     5
    6    52    71     5
   48    52    71     5
    7    54    53     5
    7    54    58     5
   53    54    58     5
    7    55    51     5
    7    55    72     5
   51    55    72     5
    8    57    56     5
    8    57    59     5
   56    57    59     5
    8    58    54     5
    8    58    73     5
   54    58    73     5
   57    59    74     5
   57    59    75     5
   74    59    75     5

[ dihedrals ]
; ai	aj	ak	al	funct	phi0	cp	mult
   60     1     2    76     9
   62     1     2    76     9
   69     1     2    76     9
    9     2     1    60     9
    9     2     1    62     9
    9     2     1    69     9
   11     2     1    60     9
   11     2     1    62     9
   11     2     1    69     9
    1     2     9    10     9
    1     2     9    43     9
   11     2     9    43     9
    1     2    11    18     9
    1     2    11    83     9
    1     2    11    84     9
    9     2    11    18     9
    9     2    11    83     9
    9     2    11    84     9
   76     2    11    83     9
   76     2    11    84     9
   42     3    12    85     9
   43     3    12    85     9
   77     3    12    85     9
   12     3    42    44     9
   12     3    42    46     9
   43     3    42    44     9
   43     3    42    46     9
   12     3    43    68     9
   42     3    43    68     9
   45     4    13    86     9
   45     4    13    87     9
   46     4    13    86     9
   46     4    13    87     9
   78     4    13    86     9
   78     4    13    87     9
   13     4    45    49     9
   13     4    45   129     9
   13     4    45   130     9
   46     4    45    49     9
   46     4    45   129     9
   46     4    45   130     9
   78     4    45   129     9
   78     4    45   130     9
   13     4    46    42     9
   13     4    46    61     9
   45     4    46    61     9
   48     5    14    88     9
   48     5    14    89     9
   49     5    14    88     9
   49     5    14    89     9
   79     5    14    88     9
   79     5    14    89     9
   14     5    48    47     9
   14     5    48    52     9
   49     5    48    52     9
   14     5    49    45     9
   14     5    49    70     9
   48     5    49    70     9
   51     6    15    90     9
   51     6    15    91     9
   52     6    15    90     9
   52     6    15    91     9
   80     6    15    90     9
   80     6    15    91     9
   15     6    51    50     9
   15     6    51    55     9
   52     6    51    55     9
   15     6    52    48     9
   15     6    52    71     9
   51     6    52    71     9
   54     7    16    92     9
   54     7    16    93     9
   54     7    16    94     9
   55     7    16    92     9
   55     7    16    93     9
   55     7    16    94     9
   81     7    16    92     9
   81     7    16    93     9
   81     7    16    94     9
   16     7    54    53     9
   16     7    54    58     9
   55     7    54    58     9
   16     7    55    51     9
   16     7    55    72     9
   54     7    55    72     9
   57     8    17    95     9
   57     8    17    96     9
   58     8    17    95     9
   58     8    17    96     9
   82     8    17    95     9
   82     8    17    96     9
   17     8    57    56     9
   17     8    57    59     9
   58     8    57    59     9
   17     8    58    54     9
   17     8    58    73     9
   57     8    58    73     9
   10     9     2    11     9
   10     9     2    76     9
   43     9     2    76     9
    2     9    43     3     9
    2     9    43    68     9
   10     9    43    68     9
   18    11     2    76     9
    2    11    18    25     9
    2    11    18    97     9
    2    11    18    98     9
   83    11    18    97     9
   83    11    18    98     9
   84    11    18    97     9
   84    11    18    98     9
   19    12     3    42     9
   19    12     3    43     9
   19    12     3    77     9
   20    12     3    42     9
   20    12     3    43     9
   20    12     3    77     9
    3    12    19    99     9
    3    12    19   100     9
    3    12    19   101     9
   20    12    19    99     9
   20    12    19   100     9
   20    12    19   101     9
   85    12    19    99     9
   85    12    19   100     9
   85    12    19   101     9
    3    12    20   102     9
    3    12    20   103     9
    3    12    20   104     9
   19    12    20   102     9
   19    12    20   103     9
   19    12    20   104     9
   85    12    20   102     9
   85    12    20   103     9
   85    12    20   104     9
   21    13     4    45     9
   21    13     4    46     9
   21    13     4    78     9
    4    13    21    27     9
    4    13    21    29     9
    4    13    21   105     9
   86    13    21   105     9
   87    13    21   105     9
   22    14     5    48     9
   22    14     5    49     9
   22    14     5    79     9
    5    14    22    26     9
    5    14    22    28     9
   23    15     6    51     9
   23    15     6    52     9
   23    15     6    80     9
    6    15    23    30     9
    6    15    23   106     9
    6    15    23   107     9
   90    15    23   106     9
   90    15    23   107     9
   91    15    23   106     9
   91    15    23   107     9
   24    17     8    57     9
   24    17     8    58     9
   24    17     8    82     9
    8    17    24    31     9
    8    17    24   108     9
    8    17    24   109     9
   95    17    24   108     9
   95    17    24   109     9
   96    17    24   108     9
   96    17    24   109     9
   25    18    11    83     9
   25    18    11    84     9
   11    18    25    35     9
   11    18    25   110     9
   11    18    25   111     9
   97    18    25   110     9
   97    18    25   111     9
   98    18    25   110     9
   98    18    25   111     9
   27    21    13    86     9
   27    21    13    87     9
   29    21    13    86     9
   29    21    13    87     9
   13    21    27   113     9
   13    21    27   114     9
   13    21    27   115     9
   29    21    27   113     9
   29    21    27   114     9
   29    21    27   115     9
  105    21    27   113     9
  105    21    27   114     9
  105    21    27   115     9
   13    21    29   117     9
   13    21    29   118     9
   13    21    29   119     9
   27    21    29   117     9
   27    21    29   118     9
   27    21    29   119     9
  105    21    29   117     9
  105    21    29   118     9
  105    21    29   119     9
   26    22    14    88     9
   26    22    14    89     9
   28    22    14    88     9
   28    22    14    89     9
   14    22    26    33     9
   14    22    26   112     9
   28    22    26    33     9
   28    22    26   112     9
   14    22    28    34     9
   14    22    28   116     9
   26    22    28    34     9
   26    22    28   116     9
   30    23    15    90     9
   30    23    15    91     9
   15    23    30    36     9
   15    23    30    37     9
   31    24    17    95     9
   31    24    17    96     9
   17    24    31    32     9
   17    24    31   120     9
   17    24    31   121     9
  108    24    31   120     9
  108    24    31   121     9
  109    24    31   120     9
  109    24    31   121     9
   35    25    18    97     9
   35    25    18    98     9
   18    25    35    38     9
   18    25    35    63     9
   22    26    33    39     9
   22    26    33   125     9
  112    26    33   125     9
   22    28    34    39     9
   22    28    34   126     9
  116    28    34   126     9
   36    30    23   106     9
   36    30    23   107     9
   37    30    23   106     9
   37    30    23   107     9
   23    30    37   127     9
   36    30    37   127     9
   32    31    24   108     9
   32    31    24   109     9
   24    31    32   122     9
   24    31    32   123     9
   24    31    32   124     9
  120    31    32   122     9
  120    31    32   123     9
  120    31    32   124     9
  121    31    32   122     9
  121    31    32   123     9
  121    31    32   124     9
   39    33    26   112     9
   26    33    39    34     9
   26    33    39   128     9
  125    33    39   128     9
   39    34    28   116     9
   28    34    39    33     9
   28    34    39   128     9
  126    34    39   128     9
   38    35    25   110     9
   38    35    25   111     9
   63    35    25   110     9
   63    35    25   111     9
   25    35    38    40     9
   25    35    38    41     9
   40    38    35    63     9
   41    38    35    63     9
   35    38    40    64     9
   35    38    40    65     9
   41    38    40    64     9
   41    38    40    65     9
   35    38    41    66     9
   35    38    41    67     9
   40    38    41    66     9
   40    38    41    67     9
   34    39    33   125     9
   33    39    34   126     9
   44    42     3    77     9
   46    42     3    77     9
    3    42    46     4     9
    3    42    46    61     9
   44    42    46    61     9
    9    43     3    12     9
    9    43     3    42     9
    9    43     3    77     9
   68    43     3    77     9
    3    43     9    10     9
   49    45     4    78     9
    4    45    49     5     9
    4    45    49    70     9
   42    46     4    45     9
   42    46     4    78     9
   61    46     4    78     9
    4    46    42    44     9
   47    48     5    49     9
   47    48     5    79     9
   52    48     5    79     9
    5    48    52     6     9
    5    48    52    71     9
   47    48    52    71     9
   45    49     5    48     9
   45    49     5    79     9
   70    49     5    79     9
    5    49    45   129     9
    5    49    45   130     9
   70    49    45   129     9
   70    49    45   130     9
   50    51     6    52     9
   50    51     6    80     9
   55    51     6    80     9
    6    51    55     7     9
    6    51    55    72     9
   50    51    55    72     9
   48    52     6    51     9
   48    52     6    80     9
   71    52     6    80     9
    6    52    48    47     9
   53    54     7    55     9
   53    54     7    81     9
   58    54     7    81     9
    7    54    58     8     9
    7    54    58    73     9
   53    54    58    73     9
   51    55     7    54     9
   51    55     7    81     9
   72    55     7    81     9
    7    55    51    50     9
   56    57     8    58     9
   56    57     8    82     9
   59    57     8    82     9
    8    57    59    74     9
    8    57    59    75     9
   56    57    59    74     9
   56    57    59    75     9
   54    58     8    57     9
   54    58     8    82     9
   73    58     8    82     9
    8    58    54    53     9

[ dihedrals ]
; ai	aj	ak	al	funct	q0	cq
    9     2    43    10     2
   30    23    36    37     2
   38    35    41    40     2
   42     3    46    44     2
   48     5    52    47     2
   51     6    55    50     2
   54     7    58    53     2
   57     8    59    56     2
