       129  EXT
         1         1  5KV       C1              7.5650000000       16.2690000000       34.1090000000  HETA      1               0.0000000000
         2         1  5KV       N1              8.8570000000       16.8290000000       33.7940000000  HETA      1               0.0000000000
         3         1  5KV       O1              6.2520000000       18.2690000000       33.6990000000  HETA      1               0.0000000000
         4         1  5KV       C2              6.3830000000       17.0500000000       33.4760000000  HETA      1               0.0000000000
         5         1  5KV       N2              7.0580000000       13.4530000000       37.1280000000  HETA      1               0.0000000000
         6         1  5KV       O2              3.3460000000       15.1950000000       33.9290000000  HETA      1               0.0000000000
         7         1  5KV       C3              7.3060000000       16.2540000000       35.6280000000  HETA      1               0.0000000000
         8         1  5KV       N3              5.3410000000       13.7440000000       38.7840000000  HETA      1               0.0000000000
         9         1  5KV       O3             -2.8780000000       15.4830000000       33.6400000000  HETA      1               0.0000000000
        10         1  5KV       C4              6.0600000000       15.4830000000       36.0070000000  HETA      1               0.0000000000
        11         1  5KV       N4              7.4920000000       12.9550000000       39.4210000000  HETA      1               0.0000000000
        12         1  5KV       O4             -7.0990000000       18.0180000000       32.8980000000  HETA      1               0.0000000000
        13         1  5KV       C5              6.2550000000       13.9710000000       36.0400000000  HETA      1               0.0000000000
        14         1  5KV       N5              5.5120000000       16.3490000000       32.6670000000  HETA      1               0.0000000000
        15         1  5KV       O5             -6.1310000000       17.6640000000       38.1570000000  HETA      1               0.0000000000
        16         1  5KV       C6              6.6250000000       13.4000000000       38.4410000000  HETA      1               0.0000000000
        17         1  5KV       N6              2.1250000000       17.1260000000       33.7340000000  HETA      1               0.0000000000
        18         1  5KV       O6             -7.5150000000       15.9500000000       38.3500000000  HETA      1               0.0000000000
        19         1  5KV       C7              4.1960000000       16.8510000000       32.3440000000  HETA      1               0.0000000000
        20         1  5KV       N7             -0.6420000000       16.9890000000       32.8100000000  HETA      1               0.0000000000
        21         1  5KV       O7             -9.4930000000       13.9850000000       33.2840000000  HETA      1               0.0000000000
        22         1  5KV       C8              3.1700000000       16.3130000000       33.3880000000  HETA      1               0.0000000000
        23         1  5KV       N8             -4.3200000000       17.2300000000       33.2870000000  HETA      1               0.0000000000
        24         1  5KV       O8            -13.1820000000       12.6640000000       31.9330000000  HETA      1               0.0000000000
        25         1  5KV       C9              3.7310000000       16.4380000000       30.9290000000  HETA      1               0.0000000000
        26         1  5KV       N9             -7.4200000000       15.7540000000       32.7050000000  HETA      1               0.0000000000
        27         1  5KV       C10             2.4070000000       17.0960000000       30.5960000000  HETA      1               0.0000000000
        28         1  5KV       N10           -11.0620000000       15.4020000000       32.3830000000  HETA      1               0.0000000000
        29         1  5KV       C11             4.7690000000       16.8170000000       29.8930000000  HETA      1               0.0000000000
        30         1  5KV       N11           -13.2490000000       14.4960000000       30.5890000000  HETA      1               0.0000000000
        31         1  5KV       C12             1.0620000000       16.6990000000       34.6220000000  HETA      1               0.0000000000
        32         1  5KV       C13            -0.3200000000       17.2710000000       34.1940000000  HETA      1               0.0000000000
        33         1  5KV       C14             1.2830000000       17.1120000000       36.0880000000  HETA      1               0.0000000000
        34         1  5KV       C15             2.3800000000       16.3130000000       36.7770000000  HETA      1               0.0000000000
        35         1  5KV       C16             2.6760000000       16.9110000000       38.1370000000  HETA      1               0.0000000000
        36         1  5KV       C17             2.0020000000       14.8510000000       36.9100000000  HETA      1               0.0000000000
        37         1  5KV       C18            -1.9820000000       17.4000000000       32.4230000000  HETA      1               0.0000000000
        38         1  5KV       C19            -3.0970000000       16.6160000000       33.1620000000  HETA      1               0.0000000000
        39         1  5KV       C20            -2.1910000000       17.2270000000       30.9070000000  HETA      1               0.0000000000
        40         1  5KV       C21            -3.3810000000       17.9640000000       30.4020000000  HETA      1               0.0000000000
        41         1  5KV       C22            -4.3970000000       17.2760000000       29.7280000000  HETA      1               0.0000000000
        42         1  5KV       C23            -3.4700000000       19.3550000000       30.5400000000  HETA      1               0.0000000000
        43         1  5KV       C24            -5.4890000000       17.9690000000       29.2070000000  HETA      1               0.0000000000
        44         1  5KV       C25            -4.5640000000       20.0450000000       30.0200000000  HETA      1               0.0000000000
        45         1  5KV       C26            -5.5750000000       19.3530000000       29.3530000000  HETA      1               0.0000000000
        46         1  5KV       C27            -5.4320000000       16.6060000000       33.9630000000  HETA      1               0.0000000000
        47         1  5KV       C28            -6.7270000000       16.8550000000       33.1480000000  HETA      1               0.0000000000
        48         1  5KV       C29            -5.6660000000       17.1630000000       35.3800000000  HETA      1               0.0000000000
        49         1  5KV       C30            -6.5260000000       16.2180000000       36.1890000000  HETA      1               0.0000000000
        50         1  5KV       C31            -6.6680000000       16.7050000000       37.5950000000  HETA      1               0.0000000000
        51         1  5KV       C32            -8.6520000000       15.8640000000       31.9640000000  HETA      1               0.0000000000
        52         1  5KV       C33            -9.7650000000       15.0000000000       32.6160000000  HETA      1               0.0000000000
        53         1  5KV       C34            -8.5250000000       15.4050000000       30.5100000000  HETA      1               0.0000000000
        54         1  5KV       C35           -12.2080000000       14.6750000000       32.8760000000  HETA      1               0.0000000000
        55         1  5KV       C36           -12.9160000000       13.8680000000       31.7620000000  HETA      1               0.0000000000
        56         1  5KV       C37           -13.2340000000       15.5880000000       33.5700000000  HETA      1               0.0000000000
        57         1  5KV       C38           -14.3270000000       14.7950000000       34.2580000000  HETA      1               0.0000000000
        58         1  5KV       C39           -15.6060000000       14.7420000000       33.4460000000  HETA      1               0.0000000000
        59         1  5KV       C40           -16.6900000000       13.9910000000       34.1790000000  HETA      1               0.0000000000
        60         1  5KV       H1              3.5240000000       16.3650000000       38.6200000000  HETA      1               0.0000000000
        61         1  5KV       H2              1.5320000000       18.2040000000       36.1430000000  HETA      1               0.0000000000
        62         1  5KV       H3              4.2390000000       17.9810000000       32.3970000000  HETA      1               0.0000000000
        63         1  5KV       H4              5.6890000000       16.1900000000       29.9950000000  HETA      1               0.0000000000
        64         1  5KV       H5             -0.3150000000       18.3900000000       34.3280000000  HETA      1               0.0000000000
        65         1  5KV       H6             -8.9590000000       16.9550000000       31.9740000000  HETA      1               0.0000000000
        66         1  5KV       H7              0.3200000000       16.9590000000       36.6430000000  HETA      1               0.0000000000
        67         1  5KV       H8             -2.2800000000       16.1310000000       30.6730000000  HETA      1               0.0000000000
        68         1  5KV       H9             -6.2840000000       17.4210000000       28.6800000000  HETA      1               0.0000000000
        69         1  5KV       H10            -4.6270000000       21.1370000000       30.1340000000  HETA      1               0.0000000000
        70         1  5KV       H11            -7.5680000000       16.3150000000       39.2480000000  HETA      1               0.0000000000
        71         1  5KV       H12            -9.4880000000       15.6000000000       29.9800000000  HETA      1               0.0000000000
        72         1  5KV       H13           -15.9570000000       15.7840000000       33.2230000000  HETA      1               0.0000000000
        73         1  5KV       H14             2.6930000000       14.3360000000       37.6240000000  HETA      1               0.0000000000
        74         1  5KV       H15             2.0780000000       14.3380000000       35.9190000000  HETA      1               0.0000000000
        75         1  5KV       H16             5.2430000000       13.4660000000       36.0530000000  HETA      1               0.0000000000
        76         1  5KV       H17           -13.0760000000       15.4550000000       30.4490000000  HETA      1               0.0000000000
        77         1  5KV       H18           -16.3800000000       12.9330000000       34.3600000000  HETA      1               0.0000000000
        78         1  5KV       H19            -6.4390000000       19.8990000000       28.9460000000  HETA      1               0.0000000000
        79         1  5KV       H20             2.4250000000       18.1830000000       30.8530000000  HETA      1               0.0000000000
        80         1  5KV       H21             2.2000000000       17.0010000000       29.5020000000  HETA      1               0.0000000000
        81         1  5KV       H22           -16.9040000000       14.4690000000       35.1660000000  HETA      1               0.0000000000
        82         1  5KV       H23             7.5710000000       15.2030000000       33.7330000000  HETA      1               0.0000000000
        83         1  5KV       H24             5.0560000000       17.8910000000       29.9980000000  HETA      1               0.0000000000
        84         1  5KV       H25            -6.1560000000       18.1710000000       35.3150000000  HETA      1               0.0000000000
        85         1  5KV       H26             6.7800000000       13.6430000000       35.0930000000  HETA      1               0.0000000000
        86         1  5KV       H27             1.0090000000       15.5680000000       34.5790000000  HETA      1               0.0000000000
        87         1  5KV       H28             8.2020000000       15.8250000000       36.1480000000  HETA      1               0.0000000000
        88         1  5KV       H29           -13.6770000000       16.3000000000       32.8260000000  HETA      1               0.0000000000
        89         1  5KV       H30             5.6960000000       15.8570000000       37.0010000000  HETA      1               0.0000000000
        90         1  5KV       H31           -14.5490000000       15.2670000000       35.2510000000  HETA      1               0.0000000000
        91         1  5KV       H32           -15.4000000000       14.2370000000       32.4640000000  HETA      1               0.0000000000
        92         1  5KV       H33            -1.2820000000       17.6120000000       30.3670000000  HETA      1               0.0000000000
        93         1  5KV       H34             2.9570000000       17.9870000000       38.0420000000  HETA      1               0.0000000000
        94         1  5KV       H35             7.1920000000       17.3170000000       35.9750000000  HETA      1               0.0000000000
        95         1  5KV       H36            -4.3340000000       16.1850000000       29.6030000000  HETA      1               0.0000000000
        96         1  5KV       H37           -13.9780000000       13.7470000000       34.4600000000  HETA      1               0.0000000000
        97         1  5KV       H38            -2.0770000000       18.4980000000       32.6790000000  HETA      1               0.0000000000
        98         1  5KV       H39             5.2300000000       15.6820000000       35.2690000000  HETA      1               0.0000000000
        99         1  5KV       H40            -1.0850000000       16.8390000000       34.9040000000  HETA      1               0.0000000000
       100         1  5KV       H41            -4.6830000000       17.3030000000       35.9030000000  HETA      1               0.0000000000
       101         1  5KV       H42            -2.6650000000       19.9090000000       31.0470000000  HETA      1               0.0000000000
       102         1  5KV       H43             0.9620000000       14.7390000000       37.2990000000  HETA      1               0.0000000000
       103         1  5KV       H44            -6.0700000000       15.1900000000       36.2230000000  HETA      1               0.0000000000
       104         1  5KV       H45             3.5920000000       15.3190000000       30.9120000000  HETA      1               0.0000000000
       105         1  5KV       H46            -5.2070000000       15.4990000000       34.0490000000  HETA      1               0.0000000000
       106         1  5KV       H47             1.7810000000       16.8350000000       38.8030000000  HETA      1               0.0000000000
       107         1  5KV       H48             4.3580000000       16.6600000000       28.8650000000  HETA      1               0.0000000000
       108         1  5KV       H49           -11.8360000000       13.9040000000       33.6230000000  HETA      1               0.0000000000
       109         1  5KV       H50            -7.5500000000       16.1180000000       35.7360000000  HETA      1               0.0000000000
       110         1  5KV       H51             1.5650000000       16.6080000000       31.1440000000  HETA      1               0.0000000000
       111         1  5KV       H52            -7.7120000000       15.9730000000       29.9930000000  HETA      1               0.0000000000
       112         1  5KV       H53           -13.7160000000       13.9890000000       29.8790000000  HETA      1               0.0000000000
       113         1  5KV       H54           -12.6950000000       16.2040000000       34.3400000000  HETA      1               0.0000000000
       114         1  5KV       H55           -17.6310000000       13.9840000000       33.5780000000  HETA      1               0.0000000000
       115         1  5KV       H56             3.3150000000       16.3780000000       36.1480000000  HETA      1               0.0000000000
       116         1  5KV       H57            -8.2950000000       14.3140000000       30.4510000000  HETA      1               0.0000000000
       117         1  5KV       H58             8.9290000000       17.7730000000       34.1220000000  HETA      1               0.0000000000
       118         1  5KV       H59             9.0230000000       16.8050000000       32.8070000000  HETA      1               0.0000000000
       119         1  5KV       H60             8.0410000000       13.3810000000       36.9560000000  HETA      1               0.0000000000
       120         1  5KV       H61             4.7140000000       14.1220000000       38.1040000000  HETA      1               0.0000000000
       121         1  5KV       H62             5.0010000000       13.6000000000       39.7080000000  HETA      1               0.0000000000
       122         1  5KV       H63             8.4140000000       12.6610000000       39.1890000000  HETA      1               0.0000000000
       123         1  5KV       H64             7.1840000000       12.8340000000       40.3590000000  HETA      1               0.0000000000
       124         1  5KV       H65             5.6180000000       15.3630000000       32.5940000000  HETA      1               0.0000000000
       125         1  5KV       H66             1.9750000000       17.9640000000       33.2210000000  HETA      1               0.0000000000
       126         1  5KV       H67            -0.5200000000       16.0090000000       32.6180000000  HETA      1               0.0000000000
       127         1  5KV       H68            -4.4860000000       18.1130000000       32.8570000000  HETA      1               0.0000000000
       128         1  5KV       H69            -7.1360000000       14.8370000000       32.9660000000  HETA      1               0.0000000000
       129         1  5KV       H70           -11.2290000000       16.2380000000       31.8770000000  HETA      1               0.0000000000
