* GENERATE LIGAND
*  DATE:     1/24/26      5:48:59      CREATED BY USER: charmm-gui
*
       129  EXT
         1         1  LIG       C1              7.5736917848       16.2852237567       34.0808921729  LIG       1               0.0000000000
         2         1  LIG       N1              8.9472745396       16.8832624206       34.0204110713  LIG       1               0.0000000000
         3         1  LIG       O1              6.2270733397       18.2566799340       33.6421880425  LIG       1               0.0000000000
         4         1  LIG       C2              6.3937332958       17.0550588463       33.4423287376  LIG       1               0.0000000000
         5         1  LIG       N2              7.0388901464       13.4698994772       37.1673453964  LIG       1               0.0000000000
         6         1  LIG       O2              3.3392340849       15.1977945964       33.8248541068  LIG       1               0.0000000000
         7         1  LIG       C3              7.3143474392       16.2143008261       35.6142425710  LIG       1               0.0000000000
         8         1  LIG       N3              5.3742433830       13.7293911742       38.7898739319  LIG       1               0.0000000000
         9         1  LIG       O3             -2.9382339160       15.5034439282       33.6397401564  LIG       1               0.0000000000
        10         1  LIG       C4              6.0466563924       15.4503381005       36.0617115025  LIG       1               0.0000000000
        11         1  LIG       N4              7.4631456253       12.9674980670       39.3886147495  LIG       1               0.0000000000
        12         1  LIG       O4             -7.0756348549       17.9833069967       32.8460155875  LIG       1               0.0000000000
        13         1  LIG       C5              6.2073081093       13.9184293563       36.0420870466  LIG       1               0.0000000000
        14         1  LIG       N5              5.5107311987       16.3628259607       32.6751541626  LIG       1               0.0000000000
        15         1  LIG       O5             -7.5246438106       15.9997100684       38.4474165068  LIG       1               0.0000000000
        16         1  LIG       C6              6.6188179133       13.3945368481       38.4436011599  LIG       1               0.0000000000
        17         1  LIG       N6              2.1823642293       17.1400431219       33.7672634295  LIG       1               0.0000000000
        18         1  LIG       O6             -6.0952904926       17.6925621180       38.1142522376  LIG       1               0.0000000000
        19         1  LIG       C7              4.1819124899       16.8627479587       32.3344650872  LIG       1               0.0000000000
        20         1  LIG       N7             -0.6191771106       17.0641222859       32.7628112994  LIG       1               0.0000000000
        21         1  LIG       O7             -9.4564469912       14.0567477065       33.3038527831  LIG       1               0.0000000000
        22         1  LIG       C8              3.1949368873       16.3326760155       33.3684689777  LIG       1               0.0000000000
        23         1  LIG       N8             -4.3401814176       17.2202790291       33.2831136454  LIG       1               0.0000000000
        24         1  LIG       O8            -13.0938948333       12.6660549096       31.8803868142  LIG       1               0.0000000000
        25         1  LIG       C9              3.7308132187       16.4279680154       30.9354728059  LIG       1               0.0000000000
        26         1  LIG       N9             -7.4165949220       15.7681440099       32.6786581113  LIG       1               0.0000000000
        27         1  LIG       C10             2.3869175898       17.0940005868       30.5726717339  LIG       1               0.0000000000
        28         1  LIG       N10           -11.0280414822       15.4004708724       32.3927584963  LIG       1               0.0000000000
        29         1  LIG       C11             4.7973274535       16.8265981789       29.8965934526  LIG       1               0.0000000000
        30         1  LIG       N11           -13.2060587903       14.5063166077       30.6025077060  LIG       1               0.0000000000
        31         1  LIG       C12             1.0820902476       16.7094840607       34.6012748428  LIG       1               0.0000000000
        32         1  LIG       C13            -0.2595258316       17.3431623666       34.1744845850  LIG       1               0.0000000000
        33         1  LIG       C14             1.3141012328       17.0982873553       36.0794740423  LIG       1               0.0000000000
        34         1  LIG       C15             2.4051967254       16.2950806798       36.8081215882  LIG       1               0.0000000000
        35         1  LIG       C16             2.6926950997       16.9125480784       38.1833080817  LIG       1               0.0000000000
        36         1  LIG       C17             2.0183689186       14.8131749719       36.9439647663  LIG       1               0.0000000000
        37         1  LIG       C18            -2.0384773932       17.4130807979       32.4388166335  LIG       1               0.0000000000
        38         1  LIG       C19            -3.1365374191       16.6175982402       33.1571052161  LIG       1               0.0000000000
        39         1  LIG       C20            -2.1704466804       17.2319142214       30.8978215375  LIG       1               0.0000000000
        40         1  LIG       C21            -3.3609577046       17.9758492620       30.3450311426  LIG       1               0.0000000000
        41         1  LIG       C22            -4.3955506269       17.2796409191       29.7004819619  LIG       1               0.0000000000
        42         1  LIG       C23            -3.4584579105       19.3671957301       30.5037990164  LIG       1               0.0000000000
        43         1  LIG       C24            -5.5056644473       17.9707993349       29.1982964091  LIG       1               0.0000000000
        44         1  LIG       C25            -4.5722211948       20.0584595406       30.0113177665  LIG       1               0.0000000000
        45         1  LIG       C26            -5.5921945277       19.3605173089       29.3520819600  LIG       1               0.0000000000
        46         1  LIG       C27            -5.4678366966       16.5976818628       33.9371493151  LIG       1               0.0000000000
        47         1  LIG       C28            -6.7179016980       16.8389630518       33.1119416474  LIG       1               0.0000000000
        48         1  LIG       C29            -5.6719750006       17.1456491790       35.3744737795  LIG       1               0.0000000000
        49         1  LIG       C30            -6.5629409801       16.1959591037       36.2122520662  LIG       1               0.0000000000
        50         1  LIG       C31            -6.7943744534       16.5883489476       37.6753176626  LIG       1               0.0000000000
        51         1  LIG       C32            -8.6710184502       15.8735069503       31.9569616263  LIG       1               0.0000000000
        52         1  LIG       C33            -9.7479267430       15.0287900617       32.6130099887  LIG       1               0.0000000000
        53         1  LIG       C34            -8.5071018913       15.4079862664       30.4965234257  LIG       1               0.0000000000
        54         1  LIG       C35           -12.1864860207       14.6543832490       32.8611544234  LIG       1               0.0000000000
        55         1  LIG       C36           -12.8546293272       13.8653985095       31.7487136446  LIG       1               0.0000000000
        56         1  LIG       C37           -13.2168951203       15.5866338608       33.5480895234  LIG       1               0.0000000000
        57         1  LIG       C38           -14.3383954600       14.8139977919       34.2635198723  LIG       1               0.0000000000
        58         1  LIG       C39           -15.6408289637       14.7490100123       33.4582364930  LIG       1               0.0000000000
        59         1  LIG       C40           -16.7377168067       13.9816356188       34.1932099635  LIG       1               0.0000000000
        60         1  LIG       H1              1.7756708643       16.8937197452       38.8100993203  LIG       1               0.0000000000
        61         1  LIG       H2              0.3637571335       16.9714380275       36.6447583054  LIG       1               0.0000000000
        62         1  LIG       H3              4.1660721535       17.9762464482       32.3717431623  LIG       1               0.0000000000
        63         1  LIG       H4              5.7648135461       16.3175897907       30.0831163865  LIG       1               0.0000000000
        64         1  LIG       H5             -1.0407754999       16.9143376034       34.8486486034  LIG       1               0.0000000000
        65         1  LIG       H6             -9.0414371799       16.9246235098       31.9561096206  LIG       1               0.0000000000
        66         1  LIG       H7              1.5750486209       18.1793352684       36.1139949492  LIG       1               0.0000000000
        67         1  LIG       H8             -2.2508746090       16.1510027413       30.6429303211  LIG       1               0.0000000000
        68         1  LIG       H9             -6.2922275645       17.4336675684       28.6893215166  LIG       1               0.0000000000
        69         1  LIG       H10            -4.6415101264       21.1298276586       30.1334436250  LIG       1               0.0000000000
        70         1  LIG       H11            -6.3297551108       17.8150408223       39.0336453497  LIG       1               0.0000000000
        71         1  LIG       H12            -8.1823889918       14.3453406709       30.4592523129  LIG       1               0.0000000000
        72         1  LIG       H13           -15.4518005522       14.2485457788       32.4816230278  LIG       1               0.0000000000
        73         1  LIG       H14             2.0028970501       14.3226962827       35.9466162675  LIG       1               0.0000000000
        74         1  LIG       H15             1.0024920973       14.7251263212       37.3862473915  LIG       1               0.0000000000
        75         1  LIG       H16             5.2137143212       13.4345561163       36.0600155115  LIG       1               0.0000000000
        76         1  LIG       H17           -13.6755958368       13.9494511427       29.9214688139  LIG       1               0.0000000000
        77         1  LIG       H18           -16.9638912660       14.4686748503       35.1657485517  LIG       1               0.0000000000
        78         1  LIG       H19            -6.4450650527       19.8954314199       28.9604258107  LIG       1               0.0000000000
        79         1  LIG       H20             2.4344379190       18.1896625576       30.7502610415  LIG       1               0.0000000000
        80         1  LIG       H21             1.5550124729       16.6690157382       31.1690499847  LIG       1               0.0000000000
        81         1  LIG       H22           -16.4043850623       12.9391166078       34.3909379735  LIG       1               0.0000000000
        82         1  LIG       H23             7.5886545497       15.2581963817       33.6591710336  LIG       1               0.0000000000
        83         1  LIG       H24             4.9622319063       17.9246875355       29.9112308091  LIG       1               0.0000000000
        84         1  LIG       H25            -6.1061093238       18.1703519115       35.3433285981  LIG       1               0.0000000000
        85         1  LIG       H26             6.6744673286       13.6115741797       35.0900712335  LIG       1               0.0000000000
        86         1  LIG       H27             0.9467978874       15.6032518521       34.5226927687  LIG       1               0.0000000000
        87         1  LIG       H28             7.2283455667       17.2656021299       35.9832711800  LIG       1               0.0000000000
        88         1  LIG       H29           -13.6520486823       16.3114229831       32.8282391507  LIG       1               0.0000000000
        89         1  LIG       H30             5.2104139413       15.7149950576       35.3853335144  LIG       1               0.0000000000
        90         1  LIG       H31           -14.5591099705       15.3054816413       35.2381630154  LIG       1               0.0000000000
        91         1  LIG       H32           -15.9887723432       15.7843667400       33.2427904526  LIG       1               0.0000000000
        92         1  LIG       H33            -1.2785187360       17.6382694661       30.3755023430  LIG       1               0.0000000000
        93         1  LIG       H34             3.0172655907       17.9696159998       38.0672295898  LIG       1               0.0000000000
        94         1  LIG       H35             8.1980808108       15.7796174842       36.1299433281  LIG       1               0.0000000000
        95         1  LIG       H36            -4.3340290384       16.2070680128       29.5917339009  LIG       1               0.0000000000
        96         1  LIG       H37           -13.9944628497       13.7789424088       34.4925516586  LIG       1               0.0000000000
        97         1  LIG       H38            -2.1707966642       18.4822441219       32.7144954497  LIG       1               0.0000000000
        98         1  LIG       H39             5.7518647016       15.8072436940       37.0717727256  LIG       1               0.0000000000
        99         1  LIG       H40            -0.2376364692       18.4396178690       34.3453225220  LIG       1               0.0000000000
       100         1  LIG       H41            -4.6737765950       17.2316983062       35.8606578006  LIG       1               0.0000000000
       101         1  LIG       H42            -2.6703632044       19.9098737802       31.0036199694  LIG       1               0.0000000000
       102         1  LIG       H43             2.7335832236       14.2713622272       37.5901706473  LIG       1               0.0000000000
       103         1  LIG       H44            -6.0945193759       15.1882000800       36.2234672568  LIG       1               0.0000000000
       104         1  LIG       H45             3.6112517897       15.3188385164       30.8974557557  LIG       1               0.0000000000
       105         1  LIG       H46            -5.3182793639       15.4959144121       34.0041037039  LIG       1               0.0000000000
       106         1  LIG       H47             3.4955209244       16.3523798383       38.7033135950  LIG       1               0.0000000000
       107         1  LIG       H48             4.4542232835       16.5394688615       28.8789988218  LIG       1               0.0000000000
       108         1  LIG       H49           -11.8728899118       13.9030206604       33.6237582501  LIG       1               0.0000000000
       109         1  LIG       H50            -7.5635637776       16.1059271530       35.7403322946  LIG       1               0.0000000000
       110         1  LIG       H51             2.1514088540       16.9277805073       29.5004141023  LIG       1               0.0000000000
       111         1  LIG       H52            -7.7363513371       16.0257786765       29.9907107454  LIG       1               0.0000000000
       112         1  LIG       H53           -13.0424791998       15.4775084099       30.4850160542  LIG       1               0.0000000000
       113         1  LIG       H54           -12.6660055003       16.1777921039       34.3156818342  LIG       1               0.0000000000
       114         1  LIG       H55           -17.6656693113       13.9464132466       33.5840888069  LIG       1               0.0000000000
       115         1  LIG       H56             3.3370666984       16.3717921733       36.2072597816  LIG       1               0.0000000000
       116         1  LIG       H57            -9.4600500503       15.5062631333       29.9344115854  LIG       1               0.0000000000
       117         1  LIG       H58             8.9448455773       17.8635210938       33.7448180205  LIG       1               0.0000000000
       118         1  LIG       H59             9.6289790503       16.3997650432       33.4450520341  LIG       1               0.0000000000
       119         1  LIG       H60             7.9746310180       13.1847586001       36.9885176709  LIG       1               0.0000000000
       120         1  LIG       H61             4.7663611361       14.0514768925       38.0739538021  LIG       1               0.0000000000
       121         1  LIG       H62             5.0877578146       13.6741816534       39.7377618808  LIG       1               0.0000000000
       122         1  LIG       H63             8.3899755164       12.7127067956       39.1407637881  LIG       1               0.0000000000
       123         1  LIG       H64             7.1560974096       12.9197841812       40.3314483421  LIG       1               0.0000000000
       124         1  LIG       H65             5.6767425946       15.4236411340       32.3930927775  LIG       1               0.0000000000
       125         1  LIG       H66             2.0722489795       18.0391373676       33.3598023451  LIG       1               0.0000000000
       126         1  LIG       H67            -0.1498714542       16.3186952368       32.2458222291  LIG       1               0.0000000000
       127         1  LIG       H68            -4.5211926611       18.1119611052       32.8735117289  LIG       1               0.0000000000
       128         1  LIG       H69            -7.1318567528       14.8402403304       32.9045547927  LIG       1               0.0000000000
       129         1  LIG       H70           -11.2140027558       16.2200185658       31.8664738406  LIG       1               0.0000000000
