[ moleculetype ]
; Name   nrexcl
JAF     3
[ atoms ]
;  nr  type  resnr  resid  atom  cgnr  charge    mass
     1 HC            1 JAF   H42         1     0.181    1.0080
     2 CR1           1 JAF   C38         2    -0.173   12.0110
     3 CR1           1 JAF   C37         3    -0.168   12.0110
     4 HC            1 JAF   H41         4     0.177    1.0080
     5 N             1 JAF   N36         5    -0.203   14.0067
     6 H             1 JAF   H40         6     0.248    1.0080
     7 CR1           1 JAF   C35         7    -0.076   12.0110
     8 N             1 JAF   N39         8    -0.122   14.0067
     9 C             1 JAF   C31         9     0.098   12.0110
    10 HC            1 JAF   H32        10     0.165    1.0080
    11 C             1 JAF   C32        11    -0.114   12.0110
    12 HC            1 JAF   H33        12     0.070    1.0080
    13 C             1 JAF   C33        13    -0.213   12.0110
    14 HC            1 JAF   H34        14     0.083    1.0080
    15 HC            1 JAF   H35        15     0.083    1.0080
    16 HC            1 JAF   H36        16     0.083    1.0080
    17 C             1 JAF   C34        17    -0.211   12.0110
    18 HC            1 JAF   H37        18     0.082    1.0080
    19 HC            1 JAF   H38        19     0.082    1.0080
    20 HC            1 JAF   H39        20     0.082    1.0080
    21 N             1 JAF   N30        21    -0.382   14.0067
    22 H             1 JAF   H31        22     0.220    1.0080
    23 C             1 JAF   C28        23     0.305   12.0110
    24 O             1 JAF   O29        24    -0.367   15.9994
    25 C             1 JAF   C20        25    -0.115   12.0110
    26 HC            1 JAF   H23        26     0.117    1.0080
    27 C             1 JAF   C21        27    -0.120   12.0110
    28 HC            1 JAF   H24        28     0.098    1.0080
    29 HC            1 JAF   H25        29     0.106    1.0080
    30 CR1           1 JAF   C22        30    -0.073   12.0110
    31 CR1           1 JAF   C23        31    -0.125   12.0110
    32 HC            1 JAF   H26        32     0.129    1.0080
    33 CR1           1 JAF   C24        33    -0.126   12.0110
    34 HC            1 JAF   H27        34     0.132    1.0080
    35 CR1           1 JAF   C25        35    -0.128   12.0110
    36 HC            1 JAF   H28        36     0.132    1.0080
    37 CR1           1 JAF   C26        37    -0.126   12.0110
    38 HC            1 JAF   H29        38     0.132    1.0080
    39 CR1           1 JAF   C27        39    -0.125   12.0110
    40 HC            1 JAF   H30        40     0.129    1.0080
    41 C             1 JAF   C19        41    -0.152   12.0110
    42 HC            1 JAF   H21        42     0.110    1.0080
    43 HC            1 JAF   H22        43     0.113    1.0080
    44 C             1 JAF   C17        44     0.006   12.0110
    45 HC            1 JAF   H19        45     0.087    1.0080
    46 O             1 JAF   O18        46    -0.328   15.9994
    47 H             1 JAF   H20        47     0.203    1.0080
    48 C             1 JAF   C9         48     0.013   12.0110
    49 HC            1 JAF   H11        49     0.125    1.0080
    50 C             1 JAF   C10        50    -0.136   12.0110
    51 HC            1 JAF   H12        51     0.115    1.0080
    52 HC            1 JAF   H13        52     0.091    1.0080
    53 CR1           1 JAF   C11        53    -0.070   12.0110
    54 CR1           1 JAF   C12        54    -0.122   12.0110
    55 HC            1 JAF   H14        55     0.130    1.0080
    56 CR1           1 JAF   C13        56    -0.127   12.0110
    57 HC            1 JAF   H15        57     0.131    1.0080
    58 CR1           1 JAF   C14        58    -0.131   12.0110
    59 HC            1 JAF   H16        59     0.130    1.0080
    60 CR1           1 JAF   C15        60    -0.127   12.0110
    61 HC            1 JAF   H17        61     0.131    1.0080
    62 CR1           1 JAF   C16        62    -0.122   12.0110
    63 HC            1 JAF   H18        63     0.130    1.0080
    64 N             1 JAF   N8         64    -0.359   14.0067
    65 H             1 JAF   H10        65     0.248    1.0080
    66 C             1 JAF   C6         66     0.411   12.0110
    67 O             1 JAF   O7         67    -0.425   15.9994
    68 OE            1 JAF   O5         68    -0.283   15.9994
    69 C             1 JAF   C1         69     0.115   12.0110
    70 C             1 JAF   C2         70    -0.231   12.0110
    71 HC            1 JAF   H01        71     0.091    1.0080
    72 HC            1 JAF   H02        72     0.091    1.0080
    73 HC            1 JAF   H03        73     0.091    1.0080
    74 C             1 JAF   C3         74    -0.231   12.0110
    75 HC            1 JAF   H04        75     0.091    1.0080
    76 HC            1 JAF   H05        76     0.091    1.0080
    77 HC            1 JAF   H06        77     0.091    1.0080
    78 C             1 JAF   C4         78    -0.231   12.0110
    79 HC            1 JAF   H07        79     0.091    1.0080
    80 HC            1 JAF   H08        80     0.091    1.0080
    81 HC            1 JAF   H09        81     0.091    1.0080
; total charge of the molecule:  -0.000
[ bonds ]
;  ai   aj  funct   c0         c1
    1    2    2   0.1090   1.2300e+07
    2    3    2   0.1410   6.5389e+06
    2    8    2   0.1400   8.5400e+06
    3    4    2   0.1090   1.2300e+07
    3    5    2   0.1400   8.5400e+06
    5    6    2   0.0985   8.2455e+07
    5    7    2   0.1400   8.5400e+06
    7    8    2   0.1360   1.0200e+07
    7    9    2   0.1520   5.4300e+06
    9   10    2   0.1140   3.8473e+07
    9   11    2   0.1540   4.2166e+06
    9   21    2   0.1440   3.3758e+05
   11   12    2   0.1130   7.0483e+06
   11   13    2   0.1520   5.4300e+06
   11   17    2   0.1520   5.4300e+06
   13   14    2   0.1120   3.7000e+07
   13   15    2   0.1120   3.7000e+07
   13   16    2   0.1120   3.7000e+07
   17   18    2   0.1120   3.7000e+07
   17   19    2   0.1120   3.7000e+07
   17   20    2   0.1120   3.7000e+07
   21   22    2   0.0985   8.2455e+07
   21   23    2   0.1380   1.1000e+07
   23   24    2   0.1250   1.3400e+07
   23   25    2   0.1530   7.1500e+06
   25   26    2   0.1130   7.0483e+06
   25   27    2   0.1530   7.1500e+06
   25   41    2   0.1520   5.4300e+06
   27   28    2   0.1120   3.7000e+07
   27   29    2   0.1120   3.7000e+07
   27   30    2   0.1490   1.4189e+07
   30   31    2   0.1390   8.6600e+06
   30   39    2   0.1390   8.6600e+06
   31   32    2   0.1090   1.2300e+07
   31   33    2   0.1390   8.6600e+06
   33   34    2   0.1090   1.2300e+07
   33   35    2   0.1390   8.6600e+06
   35   36    2   0.1090   1.2300e+07
   35   37    2   0.1390   8.6600e+06
   37   38    2   0.1090   1.2300e+07
   37   39    2   0.1390   8.6600e+06
   39   40    2   0.1090   1.2300e+07
   41   42    2   0.1120   3.7000e+07
   41   43    2   0.1120   3.7000e+07
   41   44    2   0.1520   5.4300e+06
   44   45    2   0.1130   7.0483e+06
   44   46    2   0.1430   8.1800e+06
   44   48    2   0.1560   3.0819e+06
   46   47    2   0.0971   7.9547e+06
   48   49    2   0.1140   3.8473e+07
   48   50    2   0.1530   7.1500e+06
   48   64    2   0.1440   3.3758e+05
   50   51    2   0.1130   7.0483e+06
   50   52    2   0.1120   3.7000e+07
   50   53    2   0.1490   1.4189e+07
   53   54    2   0.1390   8.6600e+06
   53   62    2   0.1390   8.6600e+06
   54   55    2   0.1100   1.2100e+07
   54   56    2   0.1390   8.6600e+06
   56   57    2   0.1090   1.2300e+07
   56   58    2   0.1390   8.6600e+06
   58   59    2   0.1090   1.2300e+07
   58   60    2   0.1390   8.6600e+06
   60   61    2   0.1090   1.2300e+07
   60   62    2   0.1390   8.6600e+06
   62   63    2   0.1100   1.2100e+07
   64   65    2   0.1000   1.8700e+07
   64   66    2   0.1380   1.1000e+07
   66   67    2   0.1250   1.3400e+07
   66   68    2   0.1380   1.1000e+07
   68   69    2   0.1450   5.2319e+06
   69   70    2   0.1520   5.4300e+06
   69   74    2   0.1520   5.4300e+06
   69   78    2   0.1520   5.4300e+06
   70   71    2   0.1120   3.7000e+07
   70   72    2   0.1120   3.7000e+07
   70   73    2   0.1120   3.7000e+07
   74   75    2   0.1120   3.7000e+07
   74   76    2   0.1120   3.7000e+07
   74   77    2   0.1120   3.7000e+07
   78   79    2   0.1120   3.7000e+07
   78   80    2   0.1120   3.7000e+07
   78   81    2   0.1120   3.7000e+07
[ pairs ]
;  ai   aj  funct  ;  all 1-4 pairs but the ones excluded in GROMOS itp
    1    4    1
    1    5    1
    1    7    1
    2    6    1
    2    9    1
    3    9    1
    4    6    1
    4    7    1
    4    8    1
    5   10    1
    5   11    1
    5   21    1
    6    8    1
    6    9    1
    7   12    1
    7   13    1
    7   17    1
    7   22    1
    7   23    1
    8   10    1
    8   11    1
    8   21    1
    9   14    1
    9   15    1
    9   16    1
    9   18    1
    9   19    1
    9   20    1
    9   24    1
    9   25    1
   10   12    1
   10   13    1
   10   17    1
   10   22    1
   10   23    1
   11   22    1
   11   23    1
   12   14    1
   12   15    1
   12   16    1
   12   18    1
   12   19    1
   12   20    1
   12   21    1
   13   18    1
   13   19    1
   13   20    1
   13   21    1
   14   17    1
   15   17    1
   16   17    1
   17   21    1
   21   26    1
   21   27    1
   21   41    1
   22   24    1
   22   25    1
   23   28    1
   23   29    1
   23   30    1
   23   42    1
   23   43    1
   23   44    1
   24   26    1
   24   27    1
   24   41    1
   25   31    1
   25   39    1
   25   45    1
   25   46    1
   25   48    1
   26   28    1
   26   29    1
   26   30    1
   26   42    1
   26   43    1
   26   44    1
   27   32    1
   27   33    1
   27   37    1
   27   40    1
   27   42    1
   27   43    1
   27   44    1
   28   31    1
   28   39    1
   28   41    1
   29   31    1
   29   39    1
   29   41    1
   30   34    1
   30   38    1
   30   41    1
   31   36    1
   31   40    1
   32   34    1
   32   35    1
   32   39    1
   33   38    1
   34   36    1
   34   37    1
   35   40    1
   36   38    1
   36   39    1
   38   40    1
   41   47    1
   41   49    1
   41   50    1
   41   64    1
   42   45    1
   42   46    1
   42   48    1
   43   45    1
   43   46    1
   43   48    1
   44   51    1
   44   52    1
   44   53    1
   44   65    1
   44   66    1
   45   47    1
   45   49    1
   45   50    1
   45   64    1
   46   49    1
   46   50    1
   46   64    1
   47   48    1
   48   54    1
   48   62    1
   48   67    1
   48   68    1
   49   51    1
   49   52    1
   49   53    1
   49   65    1
   49   66    1
   50   55    1
   50   56    1
   50   60    1
   50   63    1
   50   65    1
   50   66    1
   51   54    1
   51   62    1
   51   64    1
   52   54    1
   52   62    1
   52   64    1
   53   57    1
   53   61    1
   53   64    1
   54   59    1
   54   63    1
   55   57    1
   55   58    1
   55   62    1
   56   61    1
   57   59    1
   57   60    1
   58   63    1
   59   61    1
   59   62    1
   61   63    1
   64   69    1
   65   67    1
   65   68    1
   66   70    1
   66   74    1
   66   78    1
   67   69    1
   68   71    1
   68   72    1
   68   73    1
   68   75    1
   68   76    1
   68   77    1
   68   79    1
   68   80    1
   68   81    1
   70   75    1
   70   76    1
   70   77    1
   70   79    1
   70   80    1
   70   81    1
   71   74    1
   71   78    1
   72   74    1
   72   78    1
   73   74    1
   73   78    1
   74   79    1
   74   80    1
   74   81    1
   75   78    1
   76   78    1
   77   78    1
[ angles ]
;  ai   aj   ak  funct   angle     fc
    1    2    3    2    126.00   575.00
    1    2    8    2    120.00   505.00
    3    2    8    2    109.50   520.00
    2    3    4    2    132.00   760.00
    2    3    5    2    108.00   465.00
    4    3    5    2    120.00   505.00
    3    5    6    2    123.00   415.00
    3    5    7    2    107.00  2726.16
    6    5    7    2    123.00   415.00
    5    7    8    2    111.00   530.00
    5    7    9    2    126.00   640.00
    8    7    9    2    126.00   640.00
    2    8    7    2    106.00  1733.55
    7    9   10    2    108.00   465.00
    7    9   11    2    109.50   520.00
    7    9   21    2    109.50   520.00
   10    9   11    2    107.57   484.00
   10    9   21    2    108.00   465.00
   11    9   21    2    115.00   610.00
    9   11   12    2    109.50   285.00
    9   11   13    2    109.50   520.00
    9   11   17    2    111.00   530.00
   12   11   13    2    109.00  1680.51
   12   11   17    2    108.53   443.00
   13   11   17    2    109.50   520.00
   11   13   14    2    111.00   530.00
   11   13   15    2    111.00   530.00
   11   13   16    2    111.00   530.00
   14   13   15    2    108.53   443.00
   14   13   16    2    108.53   443.00
   15   13   16    2    108.53   443.00
   11   17   18    2    111.00   530.00
   11   17   19    2    111.00   530.00
   11   17   20    2    111.00   530.00
   18   17   19    2    108.53   443.00
   18   17   20    2    108.53   443.00
   19   17   20    2    108.53   443.00
    9   21   22    2    116.00   465.00
    9   21   23    2    122.00   700.00
   22   21   23    2    120.00   390.00
   21   23   24    2    124.00   730.00
   21   23   25    2    115.00   610.00
   24   23   25    2    121.00   685.00
   23   25   26    2    111.00   530.00
   23   25   27    2    109.50   520.00
   23   25   41    2    109.50   520.00
   26   25   27    2    109.00  1680.51
   26   25   41    2    108.00   465.00
   27   25   41    2    111.00   530.00
   25   27   28    2    109.00  1680.51
   25   27   29    2    109.00  1680.51
   25   27   30    2    111.00   530.00
   28   27   29    2    107.57   484.00
   28   27   30    2    109.00  1680.51
   29   27   30    2    110.30   524.00
   27   30   31    2    120.00   560.00
   27   30   39    2    120.00   560.00
   31   30   39    2    120.00   560.00
   30   31   32    2    120.00   505.00
   30   31   33    2    120.00   560.00
   32   31   33    2    120.00   505.00
   31   33   34    2    120.00   505.00
   31   33   35    2    120.00   560.00
   34   33   35    2    120.00   505.00
   33   35   36    2    120.00   505.00
   33   35   37    2    120.00   560.00
   36   35   37    2    120.00   505.00
   35   37   38    2    120.00   505.00
   35   37   39    2    120.00   560.00
   38   37   39    2    120.00   505.00
   30   39   37    2    120.00   560.00
   30   39   40    2    120.00   505.00
   37   39   40    2    120.00   505.00
   25   41   42    2    109.50   285.00
   25   41   43    2    108.53   443.00
   25   41   44    2    111.00   530.00
   42   41   43    2    108.53   443.00
   42   41   44    2    109.00  1680.51
   43   41   44    2    109.50   285.00
   41   44   45    2    109.60   450.00
   41   44   46    2    109.50   520.00
   41   44   48    2    111.00   530.00
   45   44   46    2    109.00  1680.51
   45   44   48    2    109.00  1680.51
   46   44   48    2    109.50   520.00
   44   46   47    2    109.50   450.00
   44   48   49    2    107.00  2726.16
   44   48   50    2    109.50   520.00
   44   48   64    2    111.00   530.00
   49   48   50    2    107.57   484.00
   49   48   64    2    107.57   484.00
   50   48   64    2    115.00   610.00
   48   50   51    2    106.75   503.00
   48   50   52    2    110.00   285.00
   48   50   53    2    111.00   530.00
   51   50   52    2    107.57   484.00
   51   50   53    2    109.60   450.00
   52   50   53    2    110.00   285.00
   50   53   54    2    120.00   560.00
   50   53   62    2    120.00   560.00
   54   53   62    2    120.00   560.00
   53   54   55    2    120.00   505.00
   53   54   56    2    120.00   560.00
   55   54   56    2    120.00   505.00
   54   56   57    2    120.00   505.00
   54   56   58    2    120.00   560.00
   57   56   58    2    120.00   505.00
   56   58   59    2    120.00   505.00
   56   58   60    2    120.00   560.00
   59   58   60    2    120.00   505.00
   58   60   61    2    120.00   505.00
   58   60   62    2    120.00   560.00
   61   60   62    2    120.00   505.00
   53   62   60    2    120.00   560.00
   53   62   63    2    120.00   505.00
   60   62   63    2    120.00   505.00
   48   64   65    2    120.00   390.00
   48   64   66    2    121.00   685.00
   65   64   66    2    120.00   390.00
   64   66   67    2    124.00   730.00
   64   66   68    2    111.40   532.00
   67   66   68    2    124.00   730.00
   66   68   69    2    119.00  2211.40
   68   69   70    2    111.00   530.00
   68   69   74    2    111.00   530.00
   68   69   78    2    111.00   530.00
   70   69   74    2    111.00   530.00
   70   69   78    2    111.00   530.00
   74   69   78    2    111.00   530.00
   69   70   71    2    109.50   285.00
   69   70   72    2    109.50   285.00
   69   70   73    2    109.50   285.00
   71   70   72    2    109.00  1680.51
   71   70   73    2    109.00  1680.51
   72   70   73    2    109.00  1680.51
   69   74   75    2    109.50   285.00
   69   74   76    2    109.50   285.00
   69   74   77    2    109.50   285.00
   75   74   76    2    109.00  1680.51
   75   74   77    2    109.00  1680.51
   76   74   77    2    109.00  1680.51
   69   78   79    2    109.50   285.00
   69   78   80    2    109.50   285.00
   69   78   81    2    109.50   285.00
   79   78   80    2    109.00  1680.51
   79   78   81    2    109.00  1680.51
   80   78   81    2    109.00  1680.51
[ dihedrals ]
; GROMOS improper dihedrals
;  ai   aj   ak   al  funct   angle     fc
   66   64   67   68    2      0.00   167.36
   64   48   65   66    2      0.00   167.36
   53   50   54   62    2      0.00   167.36
   54   53   55   56    2      0.00   167.36
   56   54   57   58    2      0.00   167.36
   58   56   59   60    2      0.00   167.36
   60   58   61   62    2      0.00   167.36
   62   53   60   63    2      0.00   167.36
   30   27   31   39    2      0.00   167.36
   31   30   32   33    2      0.00   167.36
   33   31   34   35    2      0.00   167.36
   35   33   36   37    2      0.00   167.36
   37   35   38   39    2      0.00   167.36
   39   30   37   40    2      0.00   167.36
   23   21   24   25    2      0.00   167.36
   21    9   22   23    2      0.00   167.36
    7    5    8    9    2      0.00   167.36
    5    3    6    7    2      0.00   167.36
    3    2    4    5    2      0.00   167.36
    2    1    3    8    2      0.00   167.36
[ dihedrals ]
;  ai   aj   ak   al  funct    ph0      cp     mult
    2    3    5    7    1    180.00    41.80    2
    3    2    8    7    1    180.00    41.80    2
    3    5    7    8    1    180.00    41.80    2
    5    7    8    2    1    180.00    41.80    2
    5    7    9   21    1    180.00     1.00    6
    8    2    3    5    1    180.00    41.80    2
    9   11   13   14    1      0.00     5.92    3
    9   11   17   18    1      0.00     5.92    3
    9   21   23   25    1    180.00    33.50    2
   11    9   21   23    1    180.00     1.00    6
   21    9   11   13    1      0.00     5.92    3
   24   23   25   41    1      0.00     1.00    6
   25   27   30   31    1      0.00     1.00    6
   25   41   44   48    1      0.00     5.92    3
   27   25   41   44    1      0.00     5.92    3
   30   31   33   35    1    180.00    41.80    2
   31   30   39   37    1    180.00    41.80    2
   31   33   35   37    1    180.00    41.80    2
   33   35   37   39    1    180.00    41.80    2
   35   37   39   30    1    180.00    41.80    2
   39   30   31   33    1    180.00    41.80    2
   41   25   27   30    1      0.00     5.92    3
   46   44   48   64    1      0.00     5.92    3
   48   44   46   47    1      0.00     1.26    3
   48   50   53   54    1    180.00     1.00    6
   48   64   66   68    1    180.00    33.50    2
   50   48   64   66    1    180.00     1.00    6
   53   54   56   58    1    180.00    41.80    2
   54   53   62   60    1    180.00    41.80    2
   54   56   58   60    1    180.00    41.80    2
   56   58   60   62    1    180.00    41.80    2
   58   60   62   53    1    180.00    41.80    2
   62   53   54   56    1    180.00    41.80    2
   64   48   50   53    1      0.00     5.92    3
   66   68   69   70    1      0.00     1.26    3
   67   66   68   69    1    180.00    24.00    2
   70   69   74   75    1      0.00     5.92    3
   70   69   78   79    1      0.00     5.92    3
   74   69   70   71    1      0.00     5.92    3
[ exclusions ]
;  ai   aj  funct  ;  GROMOS 1-4 exclusions
   30   35
   31   37
   33   39
   53   58
   54   60
   56   62