[ moleculetype ]
; Name   nrexcl
XA3Z     3
[ atoms ]
;  nr  type  resnr  resid  atom  cgnr  charge    mass
    1    HC    1    XA3Z    H45    1    0.158   1.0080
    2  CAro    1    XA3Z    C34    2   -0.073  12.0110
    3  NOpt    1    XA3Z     N5    3   -0.143  14.0067
    4  CAro    1    XA3Z    C33    4   -0.053  12.0110
    5    HC    1    XA3Z    H44    5    0.170   1.0080
    6  CAro    1    XA3Z    C32    6   -0.132  12.0110
    7  CAro    1    XA3Z    C36    7   -0.089  12.0110
    8    HC    1    XA3Z    H47    8    0.141   1.0080
    9  CAro    1    XA3Z    C35    9   -0.183  12.0110
   10    HC    1    XA3Z    H46   10    0.144   1.0080
   11     C    1    XA3Z    C31   11   -0.029  12.0110
   12    HC    1    XA3Z    H42   12    0.067   1.0080
   13    HC    1    XA3Z    H43   13    0.101   1.0080
   14  NTer    1    XA3Z     N1   14   -0.251  14.0067
   15     C    1    XA3Z     C1   15   -0.074  12.0110
   16    HC    1    XA3Z    H01   16    0.092   1.0080
   17    HC    1    XA3Z    H02   17    0.099   1.0080
   18     C    1    XA3Z     C2   18   -0.018  12.0110
   19    HC    1    XA3Z    H03   19    0.075   1.0080
   20  CPos    1    XA3Z     C3   20    0.301  12.0110
   21 OEOpt    1    XA3Z     O1   21   -0.352  15.9994
   22     N    1    XA3Z     N2   22   -0.386  14.0067
   23  HS14    1    XA3Z    H04   23    0.225   1.0080
   24     C    1    XA3Z     C4   24    0.090  12.0110
   25     C    1    XA3Z     C5   25   -0.227  12.0110
   26    HC    1    XA3Z    H08   26    0.085   1.0080
   27    HC    1    XA3Z    H09   27    0.085   1.0080
   28    HC    1    XA3Z    H10   28    0.085   1.0080
   29     C    1    XA3Z     C6   29   -0.227  12.0110
   30    HC    1    XA3Z    H11   30    0.085   1.0080
   31    HC    1    XA3Z    H12   31    0.085   1.0080
   32    HC    1    XA3Z    H13   32    0.085   1.0080
   33     C    1    XA3Z     C7   33   -0.227  12.0110
   34    HC    1    XA3Z    H14   34    0.085   1.0080
   35    HC    1    XA3Z    H15   35    0.085   1.0080
   36    HC    1    XA3Z    H16   36    0.085   1.0080
   37  NTer    1    XA3Z     N3   37   -0.255  14.0067
   38     C    1    XA3Z     C8   38   -0.059  12.0110
   39    HC    1    XA3Z    H17   39    0.098   1.0080
   40    HC    1    XA3Z    H18   40    0.063   1.0080
   41     C    1    XA3Z     C9   41   -0.075  12.0110
   42    HC    1    XA3Z    H19   42    0.091   1.0080
   43    HC    1    XA3Z    H20   43    0.073   1.0080
   44     C    1    XA3Z    C10   44   -0.058  12.0110
   45    HC    1    XA3Z    H21   45    0.096   1.0080
   46    HC    1    XA3Z    H22   46    0.083   1.0080
   47     C    1    XA3Z    C11   47    0.030  12.0110
   48    HC    1    XA3Z    H23   48    0.090   1.0080
   49  OAlc    1    XA3Z     O2   49   -0.339  15.9994
   50  HS14    1    XA3Z    H05   50    0.197   1.0080
   51     C    1    XA3Z    C12   51   -0.194  12.0110
   52    HC    1    XA3Z    H24   52    0.155   1.0080
   53    HC    1    XA3Z    H25   53    0.093   1.0080
   54     C    1    XA3Z    C13   54   -0.111  12.0110
   55    HC    1    XA3Z    H26   55    0.089   1.0080
   56     C    1    XA3Z    C14   56   -0.120  12.0110
   57    HC    1    XA3Z    H27   57    0.114   1.0080
   58    HC    1    XA3Z    H28   58    0.098   1.0080
   59  CAro    1    XA3Z    C15   59   -0.083  12.0110
   60  CAro    1    XA3Z    C16   60   -0.127  12.0110
   61    HC    1    XA3Z    H29   61    0.133   1.0080
   62  CAro    1    XA3Z    C17   62   -0.126  12.0110
   63    HC    1    XA3Z    H30   63    0.131   1.0080
   64  CAro    1    XA3Z    C18   64   -0.127  12.0110
   65    HC    1    XA3Z    H31   65    0.131   1.0080
   66  CAro    1    XA3Z    C19   66   -0.126  12.0110
   67    HC    1    XA3Z    H32   67    0.131   1.0080
   68  CAro    1    XA3Z    C20   68   -0.127  12.0110
   69    HC    1    XA3Z    H33   69    0.133   1.0080
   70  CPos    1    XA3Z    C21   70    0.300  12.0110
   71 OEOpt    1    XA3Z     O3   71   -0.353  15.9994
   72     N    1    XA3Z     N4   72   -0.365  14.0067
   73  HS14    1    XA3Z    H06   73    0.227   1.0080
   74     C    1    XA3Z    C22   74    0.025  12.0110
   75    HC    1    XA3Z    H34   75    0.137   1.0080
   76     C    1    XA3Z    C23   76    0.015  12.0110
   77    HC    1    XA3Z    H35   77    0.130   1.0080
   78  OAlc    1    XA3Z     O4   78   -0.320  15.9994
   79  HS14    1    XA3Z    H07   79    0.202   1.0080
   80     C    1    XA3Z    C24   80   -0.158  12.0110
   81    HC    1    XA3Z    H36   81    0.108   1.0080
   82    HC    1    XA3Z    H37   82    0.106   1.0080
   83  CAro    1    XA3Z    C25   83   -0.091  12.0110
   84  CAro    1    XA3Z    C26   84   -0.118  12.0110
   85    HC    1    XA3Z    H38   85    0.134   1.0080
   86  CAro    1    XA3Z    C27   86   -0.128  12.0110
   87    HC    1    XA3Z    H39   87    0.131   1.0080
   88  CAro    1    XA3Z    C28   88   -0.133  12.0110
   89    HC    1    XA3Z    H40   89    0.131   1.0080
   90  CAro    1    XA3Z    C29   90   -0.095  12.0110
   91  CAro    1    XA3Z    C30   91   -0.097  12.0110
   92    HC    1    XA3Z    H41   92    0.146   1.0080
; total charge of the molecule:   0.000
[ bonds ]
;  ai   aj  funct   c0         c1
    1    2    2   0.1100   1.2100e+07
    2    3    2   0.1340   1.0500e+07
    2    9    2   0.1410   6.5389e+06
    3    4    2   0.1340   1.0500e+07
    4    5    2   0.1110   4.8697e+06
    4    6    2   0.1410   6.5389e+06
    6    7    2   0.1390   8.6600e+06
    6   11    2   0.1500   8.3700e+06
    7    8    2   0.1090   1.2300e+07
    7    9    2   0.1390   8.6600e+06
    9   10    2   0.1090   1.2300e+07
   11   12    2   0.1130   7.0483e+06
   11   13    2   0.1130   7.0483e+06
   11   14    2   0.1470   8.7100e+06
   14   15    2   0.1460   4.6913e+06
   14   41    2   0.1460   4.6913e+06
   15   16    2   0.1130   7.0483e+06
   15   17    2   0.1130   7.0483e+06
   15   18    2   0.1560   3.0819e+06
   18   19    2   0.1130   7.0483e+06
   18   20    2   0.1540   4.2166e+06
   18   37    2   0.1470   8.7100e+06
   20   21    2   0.1250   1.3400e+07
   20   22    2   0.1380   1.1000e+07
   22   23    2   0.1000   1.8700e+07
   22   24    2   0.1470   8.7100e+06
   24   25    2   0.1530   7.1500e+06
   24   29    2   0.1530   7.1500e+06
   24   33    2   0.1530   7.1500e+06
   25   26    2   0.1120   3.7000e+07
   25   27    2   0.1120   3.7000e+07
   25   28    2   0.1120   3.7000e+07
   29   30    2   0.1120   3.7000e+07
   29   31    2   0.1120   3.7000e+07
   29   32    2   0.1120   3.7000e+07
   33   34    2   0.1120   3.7000e+07
   33   35    2   0.1120   3.7000e+07
   33   36    2   0.1120   3.7000e+07
   37   38    2   0.1450   5.2319e+06
   37   44    2   0.1450   5.2319e+06
   38   39    2   0.1130   7.0483e+06
   38   40    2   0.1130   7.0483e+06
   38   41    2   0.1530   7.1500e+06
   41   42    2   0.1130   7.0483e+06
   41   43    2   0.1130   7.0483e+06
   44   45    2   0.1130   7.0483e+06
   44   46    2   0.1130   7.0483e+06
   44   47    2   0.1560   3.0819e+06
   47   48    2   0.1130   7.0483e+06
   47   49    2   0.1430   8.1800e+06
   47   51    2   0.1520   5.4300e+06
   49   50    2   0.0971   7.9547e+06
   51   52    2   0.1130   7.0483e+06
   51   53    2   0.1120   3.7000e+07
   51   54    2   0.1520   5.4300e+06
   54   55    2   0.1130   7.0483e+06
   54   56    2   0.1530   7.1500e+06
   54   70    2   0.1530   7.1500e+06
   56   57    2   0.1120   3.7000e+07
   56   58    2   0.1120   3.7000e+07
   56   59    2   0.1490   1.4189e+07
   59   60    2   0.1400   8.5400e+06
   59   68    2   0.1400   8.5400e+06
   60   61    2   0.1090   1.2300e+07
   60   62    2   0.1390   8.6600e+06
   62   63    2   0.1090   1.2300e+07
   62   64    2   0.1390   8.6600e+06
   64   65    2   0.1090   1.2300e+07
   64   66    2   0.1390   8.6600e+06
   66   67    2   0.1090   1.2300e+07
   66   68    2   0.1390   8.6600e+06
   68   69    2   0.1090   1.2300e+07
   70   71    2   0.1250   1.3400e+07
   70   72    2   0.1390   8.6600e+06
   72   73    2   0.1000   1.8700e+07
   72   74    2   0.1435   6.1000e+06
   74   75    2   0.1140   3.8473e+07
   74   76    2   0.1580   7.2104e+06
   74   91    2   0.1520   5.4300e+06
   76   77    2   0.1120   3.7000e+07
   76   78    2   0.1410   6.5389e+06
   76   80    2   0.1540   4.2166e+06
   78   79    2   0.0971   7.9547e+06
   80   81    2   0.1120   3.7000e+07
   80   82    2   0.1120   3.7000e+07
   80   83    2   0.1490   1.4189e+07
   83   84    2   0.1390   8.6600e+06
   83   91    2   0.1410   6.5389e+06
   84   85    2   0.1090   1.2300e+07
   84   86    2   0.1400   8.5400e+06
   86   87    2   0.1090   1.2300e+07
   86   88    2   0.1390   8.6600e+06
   88   89    2   0.1090   1.2300e+07
   88   90    2   0.1400   8.5400e+06
   90   91    2   0.1390   8.6600e+06
   90   92    2   0.1100   1.2100e+07
[ pairs ]
;  ai   aj  funct  ;  all 1-4 pairs but the ones excluded in GROMOS itp
    1    4    1
    1    7    1
    1   10    1
    2    5    1
    2    8    1
    3   10    1
    3   11    1
    4    8    1
    4   12    1
    4   13    1
    4   14    1
    5    7    1
    5   11    1
    6   10    1
    6   15    1
    6   41    1
    7   12    1
    7   13    1
    7   14    1
    8   10    1
    8   11    1
    9   11    1
   11   16    1
   11   17    1
   11   18    1
   11   38    1
   11   42    1
   11   43    1
   12   15    1
   12   41    1
   13   15    1
   13   41    1
   14   19    1
   14   20    1
   14   37    1
   14   39    1
   14   40    1
   15   21    1
   15   22    1
   15   38    1
   15   42    1
   15   43    1
   15   44    1
   16   19    1
   16   20    1
   16   37    1
   16   41    1
   17   19    1
   17   20    1
   17   37    1
   17   41    1
   18   23    1
   18   24    1
   18   39    1
   18   40    1
   18   41    1
   18   45    1
   18   46    1
   18   47    1
   19   21    1
   19   22    1
   19   38    1
   19   44    1
   20   25    1
   20   29    1
   20   33    1
   20   38    1
   20   44    1
   21   23    1
   21   24    1
   21   37    1
   22   26    1
   22   27    1
   22   28    1
   22   30    1
   22   31    1
   22   32    1
   22   34    1
   22   35    1
   22   36    1
   22   37    1
   23   25    1
   23   29    1
   23   33    1
   25   30    1
   25   31    1
   25   32    1
   25   34    1
   25   35    1
   25   36    1
   26   29    1
   26   33    1
   27   29    1
   27   33    1
   28   29    1
   28   33    1
   29   34    1
   29   35    1
   29   36    1
   30   33    1
   31   33    1
   32   33    1
   37   42    1
   37   43    1
   37   48    1
   37   49    1
   37   51    1
   38   45    1
   38   46    1
   38   47    1
   39   42    1
   39   43    1
   39   44    1
   40   42    1
   40   43    1
   40   44    1
   41   44    1
   44   50    1
   44   52    1
   44   53    1
   44   54    1
   45   48    1
   45   49    1
   45   51    1
   46   48    1
   46   49    1
   46   51    1
   47   55    1
   47   56    1
   47   70    1
   48   50    1
   48   52    1
   48   53    1
   48   54    1
   49   52    1
   49   53    1
   49   54    1
   50   51    1
   51   57    1
   51   58    1
   51   59    1
   51   71    1
   51   72    1
   52   55    1
   52   56    1
   52   70    1
   53   55    1
   53   56    1
   53   70    1
   54   60    1
   54   68    1
   54   73    1
   54   74    1
   55   57    1
   55   58    1
   55   59    1
   55   71    1
   55   72    1
   56   61    1
   56   62    1
   56   66    1
   56   69    1
   56   71    1
   56   72    1
   57   60    1
   57   68    1
   57   70    1
   58   60    1
   58   68    1
   58   70    1
   59   63    1
   59   67    1
   59   70    1
   60   65    1
   60   69    1
   61   63    1
   61   64    1
   61   68    1
   62   67    1
   63   65    1
   63   66    1
   64   69    1
   65   67    1
   65   68    1
   67   69    1
   70   75    1
   70   76    1
   70   91    1
   71   73    1
   71   74    1
   72   77    1
   72   78    1
   72   80    1
   72   83    1
   72   90    1
   73   75    1
   73   76    1
   73   91    1
   74   79    1
   74   81    1
   74   82    1
   74   84    1
   74   88    1
   74   92    1
   75   77    1
   75   78    1
   75   80    1
   75   83    1
   75   90    1
   76   84    1
   76   90    1
   77   79    1
   77   81    1
   77   82    1
   77   83    1
   77   91    1
   78   81    1
   78   82    1
   78   83    1
   78   91    1
   79   80    1
   80   85    1
   80   86    1
   80   90    1
   81   84    1
   81   91    1
   82   84    1
   82   91    1
   83   87    1
   83   92    1
   84   89    1
   85   87    1
   85   88    1
   85   91    1
   86   92    1
   87   89    1
   87   90    1
   89   91    1
   89   92    1
[ angles ]
;  ai   aj   ak  funct   angle     fc
    1    2    3    2    120.00   505.00
    1    2    9    2    120.00   505.00
    3    2    9    2    126.00   640.00
    2    3    4    2    117.00   635.00
    3    4    5    2    120.00   505.00
    3    4    6    2    126.00   640.00
    5    4    6    2    120.00   505.00
    4    6    7    2    120.00   560.00
    4    6   11    2    120.00   560.00
    7    6   11    2    120.00   560.00
    6    7    8    2    120.00   505.00
    6    7    9    2    120.00   560.00
    8    7    9    2    120.00   505.00
    2    9    7    2    120.00   560.00
    2    9   10    2    120.00   505.00
    7    9   10    2    120.00   505.00
    6   11   12    2    109.00  1680.51
    6   11   13    2    108.00   465.00
    6   11   14    2    115.00   610.00
   12   11   13    2    107.57   484.00
   12   11   14    2    111.40   532.00
   13   11   14    2    107.00  2726.16
   11   14   15    2    116.00   620.00
   11   14   41    2    111.00   530.00
   15   14   41    2    116.00   620.00
   14   15   16    2    112.00  4899.70
   14   15   17    2    107.60   507.00
   14   15   18    2    111.00   530.00
   16   15   17    2    108.53   443.00
   16   15   18    2    108.00   465.00
   17   15   18    2    107.60   507.00
   15   18   19    2    108.00   465.00
   15   18   20    2    109.50   520.00
   15   18   37    2    111.00   530.00
   19   18   20    2    109.60   450.00
   19   18   37    2    110.00   285.00
   20   18   37    2    111.00   530.00
   18   20   21    2    121.00   685.00
   18   20   22    2    115.00   610.00
   21   20   22    2    124.00   730.00
   20   22   23    2    120.00   390.00
   20   22   24    2    124.00   730.00
   23   22   24    2    116.00   465.00
   22   24   25    2    109.50   520.00
   22   24   29    2    109.50   520.00
   22   24   33    2    109.50   520.00
   25   24   29    2    109.50   520.00
   25   24   33    2    109.50   520.00
   29   24   33    2    109.50   520.00
   24   25   26    2    110.30   524.00
   24   25   27    2    110.30   524.00
   24   25   28    2    110.30   524.00
   26   25   27    2    108.53   443.00
   26   25   28    2    108.53   443.00
   27   25   28    2    108.53   443.00
   24   29   30    2    110.30   524.00
   24   29   31    2    110.30   524.00
   24   29   32    2    110.30   524.00
   30   29   31    2    108.53   443.00
   30   29   32    2    108.53   443.00
   31   29   32    2    108.53   443.00
   24   33   34    2    110.30   524.00
   24   33   35    2    110.30   524.00
   24   33   36    2    110.30   524.00
   34   33   35    2    108.53   443.00
   34   33   36    2    108.53   443.00
   35   33   36    2    108.53   443.00
   18   37   38    2    116.00   620.00
   18   37   44    2    116.00   620.00
   38   37   44    2    116.00   620.00
   37   38   39    2    107.57   484.00
   37   38   40    2    111.40   532.00
   37   38   41    2    115.00   610.00
   39   38   40    2    108.00   465.00
   39   38   41    2    108.00   465.00
   40   38   41    2    108.53   443.00
   14   41   38    2    111.00   530.00
   14   41   42    2    107.60   507.00
   14   41   43    2    112.00  4899.70
   38   41   42    2    107.60   507.00
   38   41   43    2    108.53   443.00
   42   41   43    2    108.00   465.00
   37   44   45    2    110.00   285.00
   37   44   46    2    112.00  4899.70
   37   44   47    2    111.00   530.00
   45   44   46    2    107.57   484.00
   45   44   47    2    108.00   465.00
   46   44   47    2    107.60   507.00
   44   47   48    2    111.40   532.00
   44   47   49    2    104.00   490.00
   44   47   51    2    109.50   520.00
   48   47   49    2    109.50   285.00
   48   47   51    2    109.60   450.00
   49   47   51    2    111.00   530.00
   47   49   50    2    109.50   450.00
   47   51   52    2    108.00   465.00
   47   51   53    2    109.00  1680.51
   47   51   54    2    111.00   530.00
   52   51   53    2    108.00   465.00
   52   51   54    2    109.60   450.00
   53   51   54    2    108.00   465.00
   51   54   55    2    109.00  1680.51
   51   54   56    2    109.50   520.00
   51   54   70    2    111.00   530.00
   55   54   56    2    108.53   443.00
   55   54   70    2    111.00   530.00
   56   54   70    2    109.50   520.00
   54   56   57    2    108.53   443.00
   54   56   58    2    108.00   465.00
   54   56   59    2    111.00   530.00
   57   56   58    2    107.57   484.00
   57   56   59    2    110.30   524.00
   58   56   59    2    108.53   443.00
   56   59   60    2    120.00   560.00
   56   59   68    2    120.00   560.00
   60   59   68    2    120.00   560.00
   59   60   61    2    120.00   505.00
   59   60   62    2    120.00   560.00
   61   60   62    2    120.00   505.00
   60   62   63    2    120.00   505.00
   60   62   64    2    120.00   560.00
   63   62   64    2    120.00   505.00
   62   64   65    2    120.00   505.00
   62   64   66    2    120.00   560.00
   65   64   66    2    120.00   505.00
   64   66   67    2    120.00   505.00
   64   66   68    2    120.00   560.00
   67   66   68    2    120.00   505.00
   59   68   66    2    120.00   560.00
   59   68   69    2    120.00   505.00
   66   68   69    2    120.00   505.00
   54   70   71    2    121.00   685.00
   54   70   72    2    115.00   610.00
   71   70   72    2    124.00   730.00
   70   72   73    2    120.00   390.00
   70   72   74    2    122.00   700.00
   73   72   74    2    116.00   465.00
   72   74   75    2    108.00   465.00
   72   74   76    2    115.00   610.00
   72   74   91    2    115.00   610.00
   75   74   76    2    107.57   484.00
   75   74   91    2    106.75   503.00
   76   74   91    2    103.00   420.00
   74   76   77    2    110.30   524.00
   74   76   78    2    115.00   610.00
   74   76   80    2    109.50   520.00
   77   76   78    2    104.00   490.00
   77   76   80    2    113.00   545.00
   78   76   80    2    111.00   530.00
   76   78   79    2    109.50   450.00
   76   80   81    2    110.00   285.00
   76   80   82    2    111.00   530.00
   76   80   83    2    109.50   520.00
   81   80   82    2    108.00   465.00
   81   80   83    2    111.00   530.00
   82   80   83    2    112.00  4899.70
   80   83   84    2    126.00   640.00
   80   83   91    2    111.00   530.00
   84   83   91    2    120.00   560.00
   83   84   85    2    120.00   505.00
   83   84   86    2    120.00   560.00
   85   84   86    2    120.00   505.00
   84   86   87    2    120.00   505.00
   84   86   88    2    120.00   560.00
   87   86   88    2    120.00   505.00
   86   88   89    2    120.00   505.00
   86   88   90    2    120.00   560.00
   89   88   90    2    120.00   505.00
   88   90   91    2    120.00   560.00
   88   90   92    2    120.00   505.00
   91   90   92    2    120.00   505.00
   74   91   83    2    111.00   530.00
   74   91   90    2    126.00   640.00
   83   91   90    2    120.00   560.00
[ dihedrals ]
; GROMOS improper dihedrals
;  ai   aj   ak   al  funct   angle     fc
   22   20   23   24    2      0.00   167.36
   20   18   21   22    2      0.00   167.36
   59   56   60   68    2      0.00   167.36
   60   59   61   62    2      0.00   167.36
   62   60   63   64    2      0.00   167.36
   64   62   65   66    2      0.00   167.36
   66   64   67   68    2      0.00   167.36
   68   59   66   69    2      0.00   167.36
   70   54   71   72    2      0.00   167.36
   83   80   84   91    2      0.00   167.36
   84   83   85   86    2      0.00   167.36
   86   84   87   88    2      0.00   167.36
   88   86   89   90    2      0.00   167.36
   90   88   91   92    2      0.00   167.36
   91   74   83   90    2      0.00   167.36
    6    4    7   11    2      0.00   167.36
    4    3    5    6    2      0.00   167.36
    2    1    3    9    2      0.00   167.36
    9    2    7   10    2      0.00   167.36
    7    6    8    9    2      0.00   167.36
[ dihedrals ]
;  ai   aj   ak   al  funct    ph0      cp     mult
    2    3    4    6    1    180.00    41.80    2
    3    2    9    7    1    180.00    41.80    2
    3    4    6    7    1    180.00    41.80    2
    4    6    7    9    1    180.00    41.80    2
    4    6   11   14    1    180.00     1.00    6
    6    7    9    2    1    180.00    41.80    2
    6   11   14   15    1    180.00     1.00    6
    9    2    3    4    1    180.00    41.80    2
   14   15   18   20    1      0.00     5.92    3
   15   14   41   38    1    180.00     1.00    6
   15   18   20   21    1      0.00     1.00    6
   15   18   37   38    1    180.00     1.00    6
   18   37   38   41    1    180.00     1.00    6
   18   37   44   47    1      0.00     3.77    6
   20   22   24   25    1    180.00     1.00    6
   21   20   22   24    1    180.00    33.50    2
   22   24   25   26    1      0.00     5.92    3
   22   24   29   30    1      0.00     5.92    3
   22   24   33   34    1      0.00     5.92    3
   37   38   41   14    1      0.00     5.92    3
   37   44   47   49    1    180.00     1.00    3
   41   14   15   18    1    180.00     1.00    6
   44   47   49   50    1      0.00     1.26    3
   47   51   54   56    1      0.00     5.92    3
   49   47   51   54    1      0.00     5.92    3
   51   54   56   59    1      0.00     5.92    3
   51   54   70   71    1    180.00     1.00    6
   54   56   59   60    1    180.00     1.00    6
   59   60   62   64    1    180.00    41.80    2
   60   59   68   66    1    180.00    41.80    2
   60   62   64   66    1    180.00    41.80    2
   62   64   66   68    1    180.00    41.80    2
   64   66   68   59    1    180.00    41.80    2
   68   59   60   62    1    180.00    41.80    2
   70   72   74   76    1    180.00     1.00    6
   71   70   72   74    1    180.00    33.50    2
   72   74   76   78    1    180.00     1.00    3
   72   74   91   83    1      0.00     1.00    6
   74   76   78   79    1      0.00     1.26    3
   76   80   83   84    1    180.00     1.00    6
   78   76   80   83    1    180.00     1.00    3
   83   84   86   88    1    180.00    41.80    2
   84   83   91   90    1    180.00    41.80    2
   84   86   88   90    1    180.00    41.80    2
   86   88   90   91    1    180.00    41.80    2
   88   90   91   83    1    180.00    41.80    2
   91   83   84   86    1    180.00    41.80    2
[ exclusions ]
;  ai   aj  funct  ;  GROMOS 1-4 exclusions
    2    6
    3    7
    4    9
   59   64
   60   66
   62   68
   83   88
   84   90
   86   91