[ moleculetype ]
; Name   nrexcl
20TP     3
[ atoms ]
;  nr  type  resnr  resid  atom  cgnr  charge    mass
    1    HC    1    20TP    H58    1    0.133   1.0080
    2  CAro    1    20TP    C65    2   -0.119  12.0110
    3  CAro    1    20TP    C64    3   -0.135  12.0110
    4    HC    1    20TP    H57    4    0.134   1.0080
    5  CAro    1    20TP    C63    5   -0.106  12.0110
    6    HC    1    20TP    H56    6    0.138   1.0080
    7  CAro    1    20TP    C50    7   -0.121  12.0110
    8  CAro    1    20TP    C67    8   -0.106  12.0110
    9    HC    1    20TP    H60    9    0.138   1.0080
   10  CAro    1    20TP    C66   10   -0.135  12.0110
   11    HC    1    20TP    H59   11    0.134   1.0080
   12  CPos    1    20TP    CA5   12    0.034  12.0110
   13    HC    1    20TP    H03   13    0.121   1.0080
   14    HC    1    20TP    H04   14    0.115   1.0080
   15    OE    1    20TP    O59   15   -0.276  15.9994
   16  CPos    1    20TP    C81   16    0.403  12.0110
   17 OEOpt    1    20TP    O58   17   -0.421  15.9994
   18     N    1    20TP    N54   18   -0.356  14.0067
   19  HS14    1    20TP    H48   19    0.252   1.0080
   20     C    1    20TP    C68   20    0.029  12.0110
   21    HC    1    20TP    H61   21    0.131   1.0080
   22     C    1    20TP    C70   22   -0.221  12.0110
   23    HC    1    20TP    H62   23    0.099   1.0080
   24    HC    1    20TP    H63   24    0.099   1.0080
   25    HC    1    20TP    H64   25    0.099   1.0080
   26  CPos    1    20TP    C69   26    0.280  12.0110
   27 OEOpt    1    20TP    O54   27   -0.391  15.9994
   28     N    1    20TP    N52   28   -0.362  14.0067
   29  HS14    1    20TP    H45   29    0.263   1.0080
   30     C    1    20TP    C60   30    0.016  12.0110
   31    HC    1    20TP    H54   31    0.122   1.0080
   32     C    1    20TP    C62   32   -0.107  12.0110
   33    HC    1    20TP    H55   33    0.120   1.0080
   34     C    1    20TP    CG5   34   -0.213  12.0110
   35    HC    1    20TP    H11   35    0.081   1.0080
   36    HC    1    20TP    H12   36    0.081   1.0080
   37    HC    1    20TP    H13   37    0.081   1.0080
   38     C    1    20TP    CG6   38   -0.216  12.0110
   39    HC    1    20TP    H14   39    0.080   1.0080
   40    HC    1    20TP    H15   40    0.080   1.0080
   41    HC    1    20TP    H16   41    0.080   1.0080
   42  CPos    1    20TP    C61   42    0.289  12.0110
   43 OEOpt    1    20TP    O52   43   -0.391  15.9994
   44     N    1    20TP    N51   44   -0.360  14.0067
   45  HS14    1    20TP    H42   45    0.252   1.0080
   46     C    1    20TP    C51   46   -0.010  12.0110
   47    HC    1    20TP    H41   47    0.161   1.0080
   48     C    1    20TP    C53   48   -0.133  12.0110
   49    HC    1    20TP    H46   49    0.101   1.0080
   50    HC    1    20TP    H47   50    0.082   1.0080
   51  CAro    1    20TP    C54   51   -0.072  12.0110
   52  CAro    1    20TP    C55   52   -0.124  12.0110
   53    HC    1    20TP    H49   53    0.147   1.0080
   54  CAro    1    20TP    C56   54   -0.135  12.0110
   55    HC    1    20TP    H50   55    0.129   1.0080
   56  CAro    1    20TP    C57   56   -0.132  12.0110
   57    HC    1    20TP    H51   57    0.128   1.0080
   58  CAro    1    20TP    C58   58   -0.135  12.0110
   59    HC    1    20TP    H52   59    0.129   1.0080
   60  CAro    1    20TP    C59   60   -0.124  12.0110
   61    HC    1    20TP    H53   61    0.147   1.0080
   62     C    1    20TP    C52   62   -0.021  12.0110
   63    HC    1    20TP    H44   63    0.093   1.0080
   64  OAlc    1    20TP    O51   64   -0.341  15.9994
   65  HS14    1    20TP    H43   65    0.207   1.0080
   66     C    1    20TP     C2   66    0.025  12.0110
   67    HC    1    20TP    H20   67    0.089   1.0080
   68  OAlc    1    20TP     O1   68   -0.332  15.9994
   69  HS14    1    20TP    H19   69    0.219   1.0080
   70     C    1    20TP     C1   70    0.028  12.0110
   71    HC    1    20TP    H17   71    0.149   1.0080
   72     C    1    20TP     C3   72   -0.128  12.0110
   73    HC    1    20TP    H22   73    0.101   1.0080
   74    HC    1    20TP    H23   74    0.105   1.0080
   75  CAro    1    20TP     C4   75   -0.070  12.0110
   76  CAro    1    20TP     C5   76   -0.126  12.0110
   77    HC    1    20TP    H25   77    0.147   1.0080
   78  CAro    1    20TP     C6   78   -0.137  12.0110
   79    HC    1    20TP    H26   79    0.127   1.0080
   80  CAro    1    20TP     C7   80   -0.135  12.0110
   81    HC    1    20TP    H27   81    0.127   1.0080
   82  CAro    1    20TP     C8   82   -0.137  12.0110
   83    HC    1    20TP    H28   83    0.127   1.0080
   84  CAro    1    20TP     C9   84   -0.126  12.0110
   85    HC    1    20TP    H29   85    0.147   1.0080
   86     N    1    20TP     N1   86   -0.354  14.0067
   87  HS14    1    20TP    H18   87    0.258   1.0080
   88  CPos    1    20TP    C11   88    0.286  12.0110
   89 OEOpt    1    20TP     O2   89   -0.403  15.9994
   90     C    1    20TP    C10   90    0.017  12.0110
   91    HC    1    20TP    H30   91    0.122   1.0080
   92     C    1    20TP    C12   92   -0.108  12.0110
   93    HC    1    20TP    H31   93    0.120   1.0080
   94     C    1    20TP    CG1   94   -0.210  12.0110
   95    HC    1    20TP    H05   95    0.079   1.0080
   96    HC    1    20TP    H06   96    0.079   1.0080
   97    HC    1    20TP    H07   97    0.079   1.0080
   98     C    1    20TP    CG2   98   -0.216  12.0110
   99    HC    1    20TP    H08   99    0.080   1.0080
  100    HC    1    20TP    H09  100    0.080   1.0080
  101    HC    1    20TP    H10  101    0.080   1.0080
  102     N    1    20TP     N2  102   -0.364  14.0067
  103  HS14    1    20TP    H21  103    0.262   1.0080
  104  CPos    1    20TP    C19  104    0.279  12.0110
  105 OEOpt    1    20TP     O4  105   -0.384  15.9994
  106     C    1    20TP    C18  106    0.029  12.0110
  107    HC    1    20TP    H37  107    0.131   1.0080
  108     C    1    20TP    C20  108   -0.222  12.0110
  109    HC    1    20TP    H38  109    0.100   1.0080
  110    HC    1    20TP    H39  110    0.100   1.0080
  111    HC    1    20TP    H40  111    0.100   1.0080
  112     N    1    20TP     N4  112   -0.355  14.0067
  113  HS14    1    20TP    H24  113    0.252   1.0080
  114  CPos    1    20TP    C31  114    0.403  12.0110
  115 OEOpt    1    20TP     O8  115   -0.414  15.9994
  116    OE    1    20TP     O9  116   -0.277  15.9994
  117  CPos    1    20TP     CA  117    0.034  12.0110
  118    HC    1    20TP    H01  118    0.122   1.0080
  119    HC    1    20TP    H02  119    0.115   1.0080
  120  CAro    1    20TP      C  120   -0.117  12.0110
  121  CAro    1    20TP    C13  121   -0.109  12.0110
  122    HC    1    20TP    H32  122    0.138   1.0080
  123  CAro    1    20TP    C14  123   -0.133  12.0110
  124    HC    1    20TP    H33  124    0.134   1.0080
  125  CAro    1    20TP    C15  125   -0.121  12.0110
  126    HC    1    20TP    H34  126    0.133   1.0080
  127  CAro    1    20TP    C16  127   -0.133  12.0110
  128    HC    1    20TP    H35  128    0.134   1.0080
  129  CAro    1    20TP    C17  129   -0.109  12.0110
  130    HC    1    20TP    H36  130    0.138   1.0080
; total charge of the molecule:   0.000
[ bonds ]
;  ai   aj  funct   c0         c1
    1    2    2   0.1100   1.2100e+07
    2    3    2   0.1390   8.6600e+06
    2   10    2   0.1390   8.6600e+06
    3    4    2   0.1090   1.2300e+07
    3    5    2   0.1390   8.6600e+06
    5    6    2   0.1100   1.2100e+07
    5    7    2   0.1390   8.6600e+06
    7    8    2   0.1390   8.6600e+06
    7   12    2   0.1490   1.4189e+07
    8    9    2   0.1100   1.2100e+07
    8   10    2   0.1390   8.6600e+06
   10   11    2   0.1090   1.2300e+07
   12   13    2   0.1120   3.7000e+07
   12   14    2   0.1130   7.0483e+06
   12   15    2   0.1430   8.1800e+06
   15   16    2   0.1380   1.1000e+07
   16   17    2   0.1250   1.3400e+07
   16   18    2   0.1380   1.1000e+07
   18   19    2   0.1000   1.8700e+07
   18   20    2   0.1440   3.3758e+05
   20   21    2   0.1130   7.0483e+06
   20   22    2   0.1530   7.1500e+06
   20   26    2   0.1560   3.0819e+06
   22   23    2   0.1120   3.7000e+07
   22   24    2   0.1120   3.7000e+07
   22   25    2   0.1120   3.7000e+07
   26   27    2   0.1250   1.3400e+07
   26   28    2   0.1380   1.1000e+07
   28   29    2   0.1000   1.8700e+07
   28   30    2   0.1440   3.3758e+05
   30   31    2   0.1130   7.0483e+06
   30   32    2   0.1540   4.2166e+06
   30   42    2   0.1560   3.0819e+06
   32   33    2   0.1130   7.0483e+06
   32   34    2   0.1520   5.4300e+06
   32   38    2   0.1520   5.4300e+06
   34   35    2   0.1120   3.7000e+07
   34   36    2   0.1120   3.7000e+07
   34   37    2   0.1120   3.7000e+07
   38   39    2   0.1120   3.7000e+07
   38   40    2   0.1120   3.7000e+07
   38   41    2   0.1120   3.7000e+07
   42   43    2   0.1250   1.3400e+07
   42   44    2   0.1380   1.1000e+07
   44   45    2   0.1000   1.8700e+07
   44   46    2   0.1440   3.3758e+05
   46   47    2   0.1140   3.8473e+07
   46   48    2   0.1540   4.2166e+06
   46   62    2   0.1560   3.0819e+06
   48   49    2   0.1120   3.7000e+07
   48   50    2   0.1120   3.7000e+07
   48   51    2   0.1490   1.4189e+07
   51   52    2   0.1390   8.6600e+06
   51   60    2   0.1390   8.6600e+06
   52   53    2   0.1100   1.2100e+07
   52   54    2   0.1390   8.6600e+06
   54   55    2   0.1090   1.2300e+07
   54   56    2   0.1390   8.6600e+06
   56   57    2   0.1090   1.2300e+07
   56   58    2   0.1390   8.6600e+06
   58   59    2   0.1090   1.2300e+07
   58   60    2   0.1390   8.6600e+06
   60   61    2   0.1100   1.2100e+07
   62   63    2   0.1130   7.0483e+06
   62   64    2   0.1430   8.1800e+06
   62   66    2   0.1530   7.1500e+06
   64   65    2   0.0971   7.9547e+06
   66   67    2   0.1130   7.0483e+06
   66   68    2   0.1420   3.2236e+06
   66   70    2   0.1560   3.0819e+06
   68   69    2   0.0971   7.9547e+06
   70   71    2   0.1140   3.8473e+07
   70   72    2   0.1540   4.2166e+06
   70   86    2   0.1440   3.3758e+05
   72   73    2   0.1120   3.7000e+07
   72   74    2   0.1120   3.7000e+07
   72   75    2   0.1490   1.4189e+07
   75   76    2   0.1390   8.6600e+06
   75   84    2   0.1390   8.6600e+06
   76   77    2   0.1100   1.2100e+07
   76   78    2   0.1390   8.6600e+06
   78   79    2   0.1090   1.2300e+07
   78   80    2   0.1390   8.6600e+06
   80   81    2   0.1090   1.2300e+07
   80   82    2   0.1390   8.6600e+06
   82   83    2   0.1090   1.2300e+07
   82   84    2   0.1390   8.6600e+06
   84   85    2   0.1100   1.2100e+07
   86   87    2   0.1000   1.8700e+07
   86   88    2   0.1380   1.1000e+07
   88   89    2   0.1250   1.3400e+07
   88   90    2   0.1560   3.0819e+06
   90   91    2   0.1130   7.0483e+06
   90   92    2   0.1540   4.2166e+06
   90  102    2   0.1440   3.3758e+05
   92   93    2   0.1130   7.0483e+06
   92   94    2   0.1520   5.4300e+06
   92   98    2   0.1520   5.4300e+06
   94   95    2   0.1120   3.7000e+07
   94   96    2   0.1120   3.7000e+07
   94   97    2   0.1120   3.7000e+07
   98   99    2   0.1120   3.7000e+07
   98  100    2   0.1120   3.7000e+07
   98  101    2   0.1120   3.7000e+07
  102  103    2   0.1000   1.8700e+07
  102  104    2   0.1380   1.1000e+07
  104  105    2   0.1250   1.3400e+07
  104  106    2   0.1560   3.0819e+06
  106  107    2   0.1130   7.0483e+06
  106  108    2   0.1530   7.1500e+06
  106  112    2   0.1440   3.3758e+05
  108  109    2   0.1120   3.7000e+07
  108  110    2   0.1120   3.7000e+07
  108  111    2   0.1120   3.7000e+07
  112  113    2   0.1000   1.8700e+07
  112  114    2   0.1380   1.1000e+07
  114  115    2   0.1250   1.3400e+07
  114  116    2   0.1380   1.1000e+07
  116  117    2   0.1430   8.1800e+06
  117  118    2   0.1120   3.7000e+07
  117  119    2   0.1130   7.0483e+06
  117  120    2   0.1490   1.4189e+07
  120  121    2   0.1390   8.6600e+06
  120  129    2   0.1390   8.6600e+06
  121  122    2   0.1100   1.2100e+07
  121  123    2   0.1390   8.6600e+06
  123  124    2   0.1090   1.2300e+07
  123  125    2   0.1390   8.6600e+06
  125  126    2   0.1090   1.2300e+07
  125  127    2   0.1390   8.6600e+06
  127  128    2   0.1090   1.2300e+07
  127  129    2   0.1390   8.6600e+06
  129  130    2   0.1100   1.2100e+07
[ pairs ]
;  ai   aj  funct  ;  all 1-4 pairs but the ones excluded in GROMOS itp
    1    4    1
    1    5    1
    1    8    1
    1   11    1
    2    6    1
    2    9    1
    3   11    1
    3   12    1
    4    6    1
    4    7    1
    4   10    1
    5    9    1
    5   13    1
    5   14    1
    5   15    1
    6    8    1
    6   12    1
    7   11    1
    7   16    1
    8   13    1
    8   14    1
    8   15    1
    9   11    1
    9   12    1
   10   12    1
   12   17    1
   12   18    1
   13   16    1
   14   16    1
   15   19    1
   15   20    1
   16   21    1
   16   22    1
   16   26    1
   17   19    1
   17   20    1
   18   23    1
   18   24    1
   18   25    1
   18   27    1
   18   28    1
   19   21    1
   19   22    1
   19   26    1
   20   29    1
   20   30    1
   21   23    1
   21   24    1
   21   25    1
   21   27    1
   21   28    1
   22   27    1
   22   28    1
   23   26    1
   24   26    1
   25   26    1
   26   31    1
   26   32    1
   26   42    1
   27   29    1
   27   30    1
   28   33    1
   28   34    1
   28   38    1
   28   43    1
   28   44    1
   29   31    1
   29   32    1
   29   42    1
   30   35    1
   30   36    1
   30   37    1
   30   39    1
   30   40    1
   30   41    1
   30   45    1
   30   46    1
   31   33    1
   31   34    1
   31   38    1
   31   43    1
   31   44    1
   32   43    1
   32   44    1
   33   35    1
   33   36    1
   33   37    1
   33   39    1
   33   40    1
   33   41    1
   33   42    1
   34   39    1
   34   40    1
   34   41    1
   34   42    1
   35   38    1
   36   38    1
   37   38    1
   38   42    1
   42   47    1
   42   48    1
   42   62    1
   43   45    1
   43   46    1
   44   49    1
   44   50    1
   44   51    1
   44   63    1
   44   64    1
   44   66    1
   45   47    1
   45   48    1
   45   62    1
   46   52    1
   46   60    1
   46   65    1
   46   67    1
   46   68    1
   46   70    1
   47   49    1
   47   50    1
   47   51    1
   47   63    1
   47   64    1
   47   66    1
   48   53    1
   48   54    1
   48   58    1
   48   61    1
   48   63    1
   48   64    1
   48   66    1
   49   52    1
   49   60    1
   49   62    1
   50   52    1
   50   60    1
   50   62    1
   51   55    1
   51   59    1
   51   62    1
   52   57    1
   52   61    1
   53   55    1
   53   56    1
   53   60    1
   54   59    1
   55   57    1
   55   58    1
   56   61    1
   57   59    1
   57   60    1
   59   61    1
   62   69    1
   62   71    1
   62   72    1
   62   86    1
   63   65    1
   63   67    1
   63   68    1
   63   70    1
   64   67    1
   64   68    1
   64   70    1
   65   66    1
   66   73    1
   66   74    1
   66   75    1
   66   87    1
   66   88    1
   67   69    1
   67   71    1
   67   72    1
   67   86    1
   68   71    1
   68   72    1
   68   86    1
   69   70    1
   70   76    1
   70   84    1
   70   89    1
   70   90    1
   71   73    1
   71   74    1
   71   75    1
   71   87    1
   71   88    1
   72   77    1
   72   78    1
   72   82    1
   72   85    1
   72   87    1
   72   88    1
   73   76    1
   73   84    1
   73   86    1
   74   76    1
   74   84    1
   74   86    1
   75   79    1
   75   83    1
   75   86    1
   76   81    1
   76   85    1
   77   79    1
   77   80    1
   77   84    1
   78   83    1
   79   81    1
   79   82    1
   80   85    1
   81   83    1
   81   84    1
   83   85    1
   86   91    1
   86   92    1
   86  102    1
   87   89    1
   87   90    1
   88   93    1
   88   94    1
   88   98    1
   88  103    1
   88  104    1
   89   91    1
   89   92    1
   89  102    1
   90   95    1
   90   96    1
   90   97    1
   90   99    1
   90  100    1
   90  101    1
   90  105    1
   90  106    1
   91   93    1
   91   94    1
   91   98    1
   91  103    1
   91  104    1
   92  103    1
   92  104    1
   93   95    1
   93   96    1
   93   97    1
   93   99    1
   93  100    1
   93  101    1
   93  102    1
   94   99    1
   94  100    1
   94  101    1
   94  102    1
   95   98    1
   96   98    1
   97   98    1
   98  102    1
  102  107    1
  102  108    1
  102  112    1
  103  105    1
  103  106    1
  104  109    1
  104  110    1
  104  111    1
  104  113    1
  104  114    1
  105  107    1
  105  108    1
  105  112    1
  106  115    1
  106  116    1
  107  109    1
  107  110    1
  107  111    1
  107  113    1
  107  114    1
  108  113    1
  108  114    1
  109  112    1
  110  112    1
  111  112    1
  112  117    1
  113  115    1
  113  116    1
  114  118    1
  114  119    1
  114  120    1
  115  117    1
  116  121    1
  116  129    1
  117  122    1
  117  123    1
  117  127    1
  117  130    1
  118  121    1
  118  129    1
  119  121    1
  119  129    1
  120  124    1
  120  128    1
  121  126    1
  121  130    1
  122  124    1
  122  125    1
  122  129    1
  123  128    1
  124  126    1
  124  127    1
  125  130    1
  126  128    1
  126  129    1
  128  130    1
[ angles ]
;  ai   aj   ak  funct   angle     fc
    1    2    3    2    120.00   505.00
    1    2   10    2    120.00   505.00
    3    2   10    2    120.00   560.00
    2    3    4    2    120.00   505.00
    2    3    5    2    120.00   560.00
    4    3    5    2    120.00   505.00
    3    5    6    2    120.00   505.00
    3    5    7    2    120.00   560.00
    6    5    7    2    120.00   505.00
    5    7    8    2    120.00   560.00
    5    7   12    2    120.00   560.00
    8    7   12    2    120.00   560.00
    7    8    9    2    120.00   505.00
    7    8   10    2    120.00   560.00
    9    8   10    2    120.00   505.00
    2   10    8    2    120.00   560.00
    2   10   11    2    120.00   505.00
    8   10   11    2    120.00   505.00
    7   12   13    2    112.00  4899.70
    7   12   14    2    110.30   524.00
    7   12   15    2    111.00   530.00
   13   12   14    2    110.30   524.00
   13   12   15    2    110.30   524.00
   14   12   15    2    103.00   420.00
   12   15   16    2    117.00   635.00
   15   16   17    2    124.00   730.00
   15   16   18    2    113.00   545.00
   17   16   18    2    124.00   730.00
   16   18   19    2    120.00   390.00
   16   18   20    2    121.00   685.00
   19   18   20    2    120.00   390.00
   18   20   21    2    107.60   507.00
   18   20   22    2    111.00   530.00
   18   20   26    2    111.00   530.00
   21   20   22    2    108.53   443.00
   21   20   26    2    108.00   465.00
   22   20   26    2    109.50   520.00
   20   22   23    2    111.00   530.00
   20   22   24    2    111.00   530.00
   20   22   25    2    111.00   530.00
   23   22   24    2    109.50   285.00
   23   22   25    2    109.50   285.00
   24   22   25    2    109.50   285.00
   20   26   27    2    121.00   685.00
   20   26   28    2    115.00   610.00
   27   26   28    2    124.00   730.00
   26   28   29    2    120.00   390.00
   26   28   30    2    122.00   700.00
   29   28   30    2    116.00   465.00
   28   30   31    2    108.00   465.00
   28   30   32    2    115.00   610.00
   28   30   42    2    111.00   530.00
   31   30   32    2    108.00   465.00
   31   30   42    2    108.00   465.00
   32   30   42    2    109.50   520.00
   30   32   33    2    108.00   465.00
   30   32   34    2    109.50   520.00
   30   32   38    2    111.00   530.00
   33   32   34    2    108.53   443.00
   33   32   38    2    109.00  1680.51
   34   32   38    2    109.50   520.00
   32   34   35    2    110.30   524.00
   32   34   36    2    110.30   524.00
   32   34   37    2    110.30   524.00
   35   34   36    2    108.53   443.00
   35   34   37    2    108.53   443.00
   36   34   37    2    108.53   443.00
   32   38   39    2    109.60   450.00
   32   38   40    2    109.60   450.00
   32   38   41    2    109.60   450.00
   39   38   40    2    108.00   465.00
   39   38   41    2    108.00   465.00
   40   38   41    2    108.00   465.00
   30   42   43    2    121.00   685.00
   30   42   44    2    115.00   610.00
   43   42   44    2    124.00   730.00
   42   44   45    2    120.00   390.00
   42   44   46    2    122.00   700.00
   45   44   46    2    116.00   465.00
   44   46   47    2    108.53   443.00
   44   46   48    2    111.00   530.00
   44   46   62    2    115.00   610.00
   47   46   48    2    107.57   484.00
   47   46   62    2    106.75   503.00
   48   46   62    2    109.50   520.00
   46   48   49    2    107.57   484.00
   46   48   50    2    110.30   524.00
   46   48   51    2    111.00   530.00
   49   48   50    2    107.60   507.00
   49   48   51    2    108.53   443.00
   50   48   51    2    110.30   524.00
   48   51   52    2    120.00   560.00
   48   51   60    2    120.00   560.00
   52   51   60    2    120.00   560.00
   51   52   53    2    120.00   505.00
   51   52   54    2    120.00   560.00
   53   52   54    2    120.00   505.00
   52   54   55    2    120.00   505.00
   52   54   56    2    120.00   560.00
   55   54   56    2    120.00   505.00
   54   56   57    2    120.00   505.00
   54   56   58    2    120.00   560.00
   57   56   58    2    120.00   505.00
   56   58   59    2    120.00   505.00
   56   58   60    2    120.00   560.00
   59   58   60    2    120.00   505.00
   51   60   58    2    120.00   560.00
   51   60   61    2    120.00   505.00
   58   60   61    2    120.00   505.00
   46   62   63    2    108.00   465.00
   46   62   64    2    111.00   530.00
   46   62   66    2    111.00   530.00
   63   62   64    2    109.50   285.00
   63   62   66    2    109.50   285.00
   64   62   66    2    109.50   520.00
   62   64   65    2    109.50   450.00
   62   66   67    2    109.00  1680.51
   62   66   68    2    111.00   530.00
   62   66   70    2    111.00   530.00
   67   66   68    2    109.00  1680.51
   67   66   70    2    108.00   465.00
   68   66   70    2    109.50   520.00
   66   68   69    2    109.50   450.00
   66   70   71    2    106.75   503.00
   66   70   72    2    109.50   520.00
   66   70   86    2    115.00   610.00
   71   70   72    2    108.00   465.00
   71   70   86    2    108.53   443.00
   72   70   86    2    111.00   530.00
   70   72   73    2    107.57   484.00
   70   72   74    2    109.50   285.00
   70   72   75    2    111.00   530.00
   73   72   74    2    107.57   484.00
   73   72   75    2    108.53   443.00
   74   72   75    2    111.00   530.00
   72   75   76    2    120.00   560.00
   72   75   84    2    120.00   560.00
   76   75   84    2    120.00   560.00
   75   76   77    2    120.00   505.00
   75   76   78    2    120.00   560.00
   77   76   78    2    120.00   505.00
   76   78   79    2    120.00   505.00
   76   78   80    2    120.00   560.00
   79   78   80    2    120.00   505.00
   78   80   81    2    120.00   505.00
   78   80   82    2    120.00   560.00
   81   80   82    2    120.00   505.00
   80   82   83    2    120.00   505.00
   80   82   84    2    120.00   560.00
   83   82   84    2    120.00   505.00
   75   84   82    2    120.00   560.00
   75   84   85    2    120.00   505.00
   82   84   85    2    120.00   505.00
   70   86   87    2    116.00   465.00
   70   86   88    2    124.00   730.00
   87   86   88    2    120.00   390.00
   86   88   89    2    124.00   730.00
   86   88   90    2    115.00   610.00
   89   88   90    2    121.00   685.00
   88   90   91    2    107.60   507.00
   88   90   92    2    109.50   520.00
   88   90  102    2    111.00   530.00
   91   90   92    2    108.00   465.00
   91   90  102    2    108.00   465.00
   92   90  102    2    115.00   610.00
   90   92   93    2    108.00   465.00
   90   92   94    2    109.50   520.00
   90   92   98    2    111.00   530.00
   93   92   94    2    108.53   443.00
   93   92   98    2    109.00  1680.51
   94   92   98    2    109.50   520.00
   92   94   95    2    110.30   524.00
   92   94   96    2    110.30   524.00
   92   94   97    2    110.30   524.00
   95   94   96    2    109.00  1680.51
   95   94   97    2    109.00  1680.51
   96   94   97    2    109.00  1680.51
   92   98   99    2    111.40   532.00
   92   98  100    2    111.40   532.00
   92   98  101    2    111.40   532.00
   99   98  100    2    108.53   443.00
   99   98  101    2    108.53   443.00
  100   98  101    2    108.53   443.00
   90  102  103    2    116.00   465.00
   90  102  104    2    122.00   700.00
  103  102  104    2    120.00   390.00
  102  104  105    2    124.00   730.00
  102  104  106    2    115.00   610.00
  105  104  106    2    121.00   685.00
  104  106  107    2    108.00   465.00
  104  106  108    2    109.50   520.00
  104  106  112    2    111.00   530.00
  107  106  108    2    108.53   443.00
  107  106  112    2    107.60   507.00
  108  106  112    2    111.00   530.00
  106  108  109    2    111.00   530.00
  106  108  110    2    111.00   530.00
  106  108  111    2    111.00   530.00
  109  108  110    2    109.50   285.00
  109  108  111    2    109.50   285.00
  110  108  111    2    109.50   285.00
  106  112  113    2    120.00   390.00
  106  112  114    2    121.00   685.00
  113  112  114    2    120.00   390.00
  112  114  115    2    124.00   730.00
  112  114  116    2    113.00   545.00
  115  114  116    2    124.00   730.00
  114  116  117    2    117.00   635.00
  116  117  118    2    111.00   530.00
  116  117  119    2    103.00   420.00
  116  117  120    2    111.00   530.00
  118  117  119    2    110.30   524.00
  118  117  120    2    111.40   532.00
  119  117  120    2    110.30   524.00
  117  120  121    2    120.00   560.00
  117  120  129    2    120.00   560.00
  121  120  129    2    120.00   560.00
  120  121  122    2    120.00   505.00
  120  121  123    2    120.00   560.00
  122  121  123    2    120.00   505.00
  121  123  124    2    120.00   505.00
  121  123  125    2    120.00   560.00
  124  123  125    2    120.00   505.00
  123  125  126    2    120.00   505.00
  123  125  127    2    120.00   560.00
  126  125  127    2    120.00   505.00
  125  127  128    2    120.00   505.00
  125  127  129    2    120.00   560.00
  128  127  129    2    120.00   505.00
  120  129  127    2    120.00   560.00
  120  129  130    2    120.00   505.00
  127  129  130    2    120.00   505.00
[ dihedrals ]
; GROMOS improper dihedrals
;  ai   aj   ak   al  funct   angle     fc
  120  117  121  129    2      0.00   167.36
   86   70   87   88    2      0.00   167.36
  102   90  103  104    2      0.00   167.36
   75   72   76   84    2      0.00   167.36
  112  106  113  114    2      0.00   167.36
   76   75   77   78    2      0.00   167.36
   78   76   79   80    2      0.00   167.36
   80   78   81   82    2      0.00   167.36
   82   80   83   84    2      0.00   167.36
   84   75   82   85    2      0.00   167.36
   88   86   89   90    2      0.00   167.36
  121  120  122  123    2      0.00   167.36
  123  121  124  125    2      0.00   167.36
  125  123  126  127    2      0.00   167.36
  127  125  128  129    2      0.00   167.36
  129  120  127  130    2      0.00   167.36
  104  102  105  106    2      0.00   167.36
  114  112  115  116    2      0.00   167.36
    7    5    8   12    2      0.00   167.36
   44   42   45   46    2      0.00   167.36
   28   26   29   30    2      0.00   167.36
   51   48   52   60    2      0.00   167.36
   18   16   19   20    2      0.00   167.36
   52   51   53   54    2      0.00   167.36
   54   52   55   56    2      0.00   167.36
   56   54   57   58    2      0.00   167.36
   58   56   59   60    2      0.00   167.36
   60   51   58   61    2      0.00   167.36
   42   30   43   44    2      0.00   167.36
    5    3    6    7    2      0.00   167.36
    3    2    4    5    2      0.00   167.36
    2    1    3   10    2      0.00   167.36
   10    2    8   11    2      0.00   167.36
    8    7    9   10    2      0.00   167.36
   26   20   27   28    2      0.00   167.36
   16   15   17   18    2      0.00   167.36
[ dihedrals ]
;  ai   aj   ak   al  funct    ph0      cp     mult
    2    3    5    7    1    180.00    41.80    2
    3    2   10    8    1    180.00    41.80    2
    3    5    7    8    1    180.00    41.80    2
    5    7    8   10    1    180.00    41.80    2
    5    7   12   15    1    180.00     1.00    6
    7    8   10    2    1    180.00    41.80    2
    7   12   15   16    1    180.00     1.00    3
   10    2    3    5    1    180.00    41.80    2
   12   15   16   18    1    180.00     7.11    2
   16   18   20   26    1      0.00     3.77    6
   17   16   18   20    1    180.00    33.50    2
   18   20   22   23    1      0.00     5.92    3
   18   20   26   28    1      0.00     1.00    6
   26   28   30   42    1      0.00     3.77    6
   27   26   28   30    1    180.00    33.50    2
   28   30   32   34    1      0.00     5.92    3
   28   30   42   44    1    180.00     1.00    6
   34   32   38   39    1      0.00     5.92    3
   38   32   34   35    1      0.00     5.92    3
   42   44   46   62    1      0.00     3.77    6
   43   42   44   46    1    180.00    33.50    2
   44   46   48   51    1      0.00     5.92    3
   44   46   62   66    1      0.00     5.92    3
   46   48   51   52    1    180.00     1.00    6
   46   62   66   70    1      0.00     5.92    3
   51   52   54   56    1    180.00    41.80    2
   52   51   60   58    1    180.00    41.80    2
   52   54   56   58    1    180.00    41.80    2
   54   56   58   60    1    180.00    41.80    2
   56   58   60   51    1    180.00    41.80    2
   60   51   52   54    1    180.00    41.80    2
   66   62   64   65    1      0.00     1.26    3
   66   70   86   88    1      0.00     3.77    6
   68   66   70   86    1      0.00     5.92    3
   70   66   68   69    1      0.00     1.26    3
   70   72   75   76    1    180.00     1.00    6
   70   86   88   89    1    180.00    33.50    2
   75   76   78   80    1    180.00    41.80    2
   76   75   84   82    1    180.00    41.80    2
   76   78   80   82    1    180.00    41.80    2
   78   80   82   84    1    180.00    41.80    2
   80   82   84   75    1    180.00    41.80    2
   84   75   76   78    1    180.00    41.80    2
   86   70   72   75    1      0.00     5.92    3
   86   88   90  102    1    180.00     1.00    6
   88   90  102  104    1      0.00     3.77    6
   90  102  104  105    1    180.00    33.50    2
   94   92   98   99    1      0.00     5.92    3
   98   92   94   95    1      0.00     5.92    3
  102   90   92   94    1      0.00     5.92    3
  102  104  106  112    1      0.00     1.00    6
  104  106  112  114    1      0.00     3.77    6
  106  112  114  115    1    180.00    33.50    2
  112  106  108  109    1      0.00     5.92    3
  112  114  116  117    1    180.00     7.11    2
  114  116  117  120    1    180.00     1.00    3
  116  117  120  121    1      0.00     1.00    6
  120  121  123  125    1    180.00    41.80    2
  121  120  129  127    1    180.00    41.80    2
  121  123  125  127    1    180.00    41.80    2
  123  125  127  129    1    180.00    41.80    2
  125  127  129  120    1    180.00    41.80    2
  129  120  121  123    1    180.00    41.80    2
[ exclusions ]
;  ai   aj  funct  ;  GROMOS 1-4 exclusions
    2    7
    3    8
    5   10
   51   56
   52   58
   54   60
   75   80
   76   82
   78   84
  120  125
  121  127
  123  129