[ moleculetype ]
; Name   nrexcl
XB0     3
[ atoms ]
;  nr  type  resnr  resid  atom  cgnr  charge    mass
     1 H             1 XB0   H18         1     0.156    1.0080
     2 N             1 XB0   N4          2    -0.384   14.0067
     3 H             1 XB0   H014        3     0.156    1.0080
     4 C             1 XB0   C4          4     0.098   12.0110
     5 HC            1 XB0   H023        5     0.108    1.0080
     6 O             1 XB0   O4          6    -0.338   15.9994
     7 H             1 XB0   H033        7     0.215    1.0080
     8 C             1 XB0   CM          8    -0.220   12.0110
     9 HC            1 XB0   H16         9     0.082    1.0080
    10 HC            1 XB0   H17        10     0.101    1.0080
    11 C             1 XB0   CH         11     0.006   12.0110
    12 HC            1 XB0   H14        12     0.146    1.0080
    13 O             1 XB0   OH         13    -0.315   15.9994
    14 H             1 XB0   H15        14     0.191    1.0080
    15 C             1 XB0   CA3        15    -0.006   12.0110
    16 HC            1 XB0   H013       16     0.138    1.0080
    17 C             1 XB0   CB3        17    -0.163   12.0110
    18 HC            1 XB0   H043       18     0.081    1.0080
    19 HC            1 XB0   H053       19     0.081    1.0080
    20 C             1 XB0   CG         20    -0.108   12.0110
    21 HC            1 XB0   H063       21     0.099    1.0080
    22 C             1 XB0   CD1        22    -0.211   12.0110
    23 HC            1 XB0   H073       23     0.077    1.0080
    24 HC            1 XB0   H083       24     0.077    1.0080
    25 HC            1 XB0   H101       25     0.077    1.0080
    26 C             1 XB0   CD2        26    -0.210   12.0110
    27 HC            1 XB0   H11        27     0.074    1.0080
    28 HC            1 XB0   H12        28     0.074    1.0080
    29 HC            1 XB0   H13        29     0.074    1.0080
    30 N             1 XB0   N3         30    -0.369   14.0067
    31 H             1 XB0   H092       31     0.227    1.0080
    32 C             1 XB0   C3         32     0.285   12.0110
    33 O             1 XB0   O3         33    -0.368   15.9994
    34 C             1 XB0   CA2        34     0.016   12.0110
    35 HC            1 XB0   H012       35     0.132    1.0080
    36 C             1 XB0   CB2        36    -0.117   12.0110
    37 HC            1 XB0   H022       37     0.113    1.0080
    38 C             1 XB0   CG12       38    -0.218   12.0110
    39 HC            1 XB0   H032       39     0.083    1.0080
    40 HC            1 XB0   H042       40     0.083    1.0080
    41 HC            1 XB0   H052       41     0.083    1.0080
    42 C             1 XB0   CG22       42    -0.210   12.0110
    43 HC            1 XB0   H062       43     0.079    1.0080
    44 HC            1 XB0   H072       44     0.079    1.0080
    45 HC            1 XB0   H082       45     0.079    1.0080
    46 N             1 XB0   N2         46    -0.361   14.0067
    47 H             1 XB0   H091       47     0.248    1.0080
    48 C             1 XB0   C2         48     0.284   12.0110
    49 O             1 XB0   O2         49    -0.388   15.9994
    50 C             1 XB0   CA1        50     0.020   12.0110
    51 HC            1 XB0   H011       51     0.139    1.0080
    52 C             1 XB0   CB1        52    -0.113   12.0110
    53 HC            1 XB0   H021       53     0.110    1.0080
    54 C             1 XB0   CG11       54    -0.215   12.0110
    55 HC            1 XB0   H031       55     0.081    1.0080
    56 HC            1 XB0   H041       56     0.081    1.0080
    57 HC            1 XB0   H051       57     0.081    1.0080
    58 C             1 XB0   CG21       58    -0.207   12.0110
    59 HC            1 XB0   H061       59     0.078    1.0080
    60 HC            1 XB0   H071       60     0.078    1.0080
    61 HC            1 XB0   H081       61     0.078    1.0080
    62 N             1 XB0   N1         62    -0.377   14.0067
    63 H             1 XB0   H10        63     0.235    1.0080
    64 C             1 XB0   C1         64     0.309   12.0110
    65 O             1 XB0   O1         65    -0.374   15.9994
    66 C             1 XB0   CA         66    -0.176   12.0110
    67 HC            1 XB0   H01        67     0.120    1.0080
    68 HC            1 XB0   H02        68     0.095    1.0080
    69 C             1 XB0   CB         69    -0.100   12.0110
    70 HC            1 XB0   H03        70     0.091    1.0080
    71 C             1 XB0   CG1        71    -0.215   12.0110
    72 HC            1 XB0   H04        72     0.082    1.0080
    73 HC            1 XB0   H05        73     0.082    1.0080
    74 HC            1 XB0   H06        74     0.082    1.0080
    75 C             1 XB0   CG2        75    -0.218   12.0110
    76 HC            1 XB0   H07        76     0.079    1.0080
    77 HC            1 XB0   H08        77     0.079    1.0080
    78 HC            1 XB0   H09        78     0.079    1.0080
; total charge of the molecule:  -0.000
[ bonds ]
;  ai   aj  funct   c0         c1
    1    2    2   0.1000   1.8700e+07
    2    3    2   0.1000   1.8700e+07
    2    4    2   0.1450   5.2319e+06
    4    5    2   0.1130   7.0483e+06
    4    6    2   0.1430   8.1800e+06
    4    8    2   0.1540   4.2166e+06
    6    7    2   0.0971   7.9547e+06
    8    9    2   0.1120   3.7000e+07
    8   10    2   0.1120   3.7000e+07
    8   11    2   0.1520   5.4300e+06
   11   12    2   0.1130   7.0483e+06
   11   13    2   0.1420   3.2236e+06
   11   15    2   0.1560   3.0819e+06
   13   14    2   0.0971   7.9547e+06
   15   16    2   0.1130   7.0483e+06
   15   17    2   0.1530   7.1500e+06
   15   30    2   0.1440   3.3758e+05
   17   18    2   0.1120   3.7000e+07
   17   19    2   0.1120   3.7000e+07
   17   20    2   0.1520   5.4300e+06
   20   21    2   0.1130   7.0483e+06
   20   22    2   0.1520   5.4300e+06
   20   26    2   0.1520   5.4300e+06
   22   23    2   0.1120   3.7000e+07
   22   24    2   0.1120   3.7000e+07
   22   25    2   0.1120   3.7000e+07
   26   27    2   0.1120   3.7000e+07
   26   28    2   0.1120   3.7000e+07
   26   29    2   0.1120   3.7000e+07
   30   31    2   0.1000   1.8700e+07
   30   32    2   0.1380   1.1000e+07
   32   33    2   0.1250   1.3400e+07
   32   34    2   0.1560   3.0819e+06
   34   35    2   0.1130   7.0483e+06
   34   36    2   0.1540   4.2166e+06
   34   46    2   0.1440   3.3758e+05
   36   37    2   0.1130   7.0483e+06
   36   38    2   0.1520   5.4300e+06
   36   42    2   0.1520   5.4300e+06
   38   39    2   0.1120   3.7000e+07
   38   40    2   0.1120   3.7000e+07
   38   41    2   0.1120   3.7000e+07
   42   43    2   0.1120   3.7000e+07
   42   44    2   0.1120   3.7000e+07
   42   45    2   0.1120   3.7000e+07
   46   47    2   0.1000   1.8700e+07
   46   48    2   0.1380   1.1000e+07
   48   49    2   0.1250   1.3400e+07
   48   50    2   0.1560   3.0819e+06
   50   51    2   0.1130   7.0483e+06
   50   52    2   0.1540   4.2166e+06
   50   62    2   0.1440   3.3758e+05
   52   53    2   0.1130   7.0483e+06
   52   54    2   0.1520   5.4300e+06
   52   58    2   0.1520   5.4300e+06
   54   55    2   0.1120   3.7000e+07
   54   56    2   0.1120   3.7000e+07
   54   57    2   0.1120   3.7000e+07
   58   59    2   0.1120   3.7000e+07
   58   60    2   0.1120   3.7000e+07
   58   61    2   0.1120   3.7000e+07
   62   63    2   0.1000   1.8700e+07
   62   64    2   0.1380   1.1000e+07
   64   65    2   0.1250   1.3400e+07
   64   66    2   0.1520   5.4300e+06
   66   67    2   0.1120   3.7000e+07
   66   68    2   0.1120   3.7000e+07
   66   69    2   0.1520   5.4300e+06
   69   70    2   0.1130   7.0483e+06
   69   71    2   0.1520   5.4300e+06
   69   75    2   0.1520   5.4300e+06
   71   72    2   0.1120   3.7000e+07
   71   73    2   0.1120   3.7000e+07
   71   74    2   0.1120   3.7000e+07
   75   76    2   0.1120   3.7000e+07
   75   77    2   0.1120   3.7000e+07
   75   78    2   0.1120   3.7000e+07
[ pairs ]
;  ai   aj  funct  ;  all 1-4 pairs but the ones excluded in GROMOS itp
    1    5    1
    1    6    1
    1    8    1
    2    7    1
    2    9    1
    2   10    1
    2   11    1
    3    5    1
    3    6    1
    3    8    1
    4   12    1
    4   13    1
    4   15    1
    5    7    1
    5    9    1
    5   10    1
    5   11    1
    6    9    1
    6   10    1
    6   11    1
    7    8    1
    8   14    1
    8   16    1
    8   17    1
    8   30    1
    9   12    1
    9   13    1
    9   15    1
   10   12    1
   10   13    1
   10   15    1
   11   18    1
   11   19    1
   11   20    1
   11   31    1
   11   32    1
   12   14    1
   12   16    1
   12   17    1
   12   30    1
   13   16    1
   13   17    1
   13   30    1
   14   15    1
   15   21    1
   15   22    1
   15   26    1
   15   33    1
   15   34    1
   16   18    1
   16   19    1
   16   20    1
   16   31    1
   16   32    1
   17   23    1
   17   24    1
   17   25    1
   17   27    1
   17   28    1
   17   29    1
   17   31    1
   17   32    1
   18   21    1
   18   22    1
   18   26    1
   18   30    1
   19   21    1
   19   22    1
   19   26    1
   19   30    1
   20   30    1
   21   23    1
   21   24    1
   21   25    1
   21   27    1
   21   28    1
   21   29    1
   22   27    1
   22   28    1
   22   29    1
   23   26    1
   24   26    1
   25   26    1
   30   35    1
   30   36    1
   30   46    1
   31   33    1
   31   34    1
   32   37    1
   32   38    1
   32   42    1
   32   47    1
   32   48    1
   33   35    1
   33   36    1
   33   46    1
   34   39    1
   34   40    1
   34   41    1
   34   43    1
   34   44    1
   34   45    1
   34   49    1
   34   50    1
   35   37    1
   35   38    1
   35   42    1
   35   47    1
   35   48    1
   36   47    1
   36   48    1
   37   39    1
   37   40    1
   37   41    1
   37   43    1
   37   44    1
   37   45    1
   37   46    1
   38   43    1
   38   44    1
   38   45    1
   38   46    1
   39   42    1
   40   42    1
   41   42    1
   42   46    1
   46   51    1
   46   52    1
   46   62    1
   47   49    1
   47   50    1
   48   53    1
   48   54    1
   48   58    1
   48   63    1
   48   64    1
   49   51    1
   49   52    1
   49   62    1
   50   55    1
   50   56    1
   50   57    1
   50   59    1
   50   60    1
   50   61    1
   50   65    1
   50   66    1
   51   53    1
   51   54    1
   51   58    1
   51   63    1
   51   64    1
   52   63    1
   52   64    1
   53   55    1
   53   56    1
   53   57    1
   53   59    1
   53   60    1
   53   61    1
   53   62    1
   54   59    1
   54   60    1
   54   61    1
   54   62    1
   55   58    1
   56   58    1
   57   58    1
   58   62    1
   62   67    1
   62   68    1
   62   69    1
   63   65    1
   63   66    1
   64   70    1
   64   71    1
   64   75    1
   65   67    1
   65   68    1
   65   69    1
   66   72    1
   66   73    1
   66   74    1
   66   76    1
   66   77    1
   66   78    1
   67   70    1
   67   71    1
   67   75    1
   68   70    1
   68   71    1
   68   75    1
   70   72    1
   70   73    1
   70   74    1
   70   76    1
   70   77    1
   70   78    1
   71   76    1
   71   77    1
   71   78    1
   72   75    1
   73   75    1
   74   75    1
[ angles ]
;  ai   aj   ak  funct   angle     fc
    1    2    3    2    110.00   285.00
    1    2    4    2    109.50   425.00
    3    2    4    2    109.50   425.00
    2    4    5    2    107.57   484.00
    2    4    6    2    110.30   524.00
    2    4    8    2    115.00   610.00
    5    4    6    2    109.60   450.00
    5    4    8    2    108.53   443.00
    6    4    8    2    109.50   520.00
    4    6    7    2    109.50   450.00
    4    8    9    2    109.60   450.00
    4    8   10    2    109.00  1680.51
    4    8   11    2    109.50   520.00
    9    8   10    2    108.53   443.00
    9    8   11    2    110.00   285.00
   10    8   11    2    109.60   450.00
    8   11   12    2    109.60   450.00
    8   11   13    2    111.00   530.00
    8   11   15    2    111.00   530.00
   12   11   13    2    103.00   420.00
   12   11   15    2    109.00  1680.51
   13   11   15    2    111.00   530.00
   11   13   14    2    109.50   450.00
   11   15   16    2    106.00  1733.55
   11   15   17    2    111.00   530.00
   11   15   30    2    111.00   530.00
   16   15   17    2    109.00  1680.51
   16   15   30    2    107.57   484.00
   17   15   30    2    111.00   530.00
   15   17   18    2    108.00   465.00
   15   17   19    2    109.60   450.00
   15   17   20    2    111.00   530.00
   18   17   19    2    107.00  2726.16
   18   17   20    2    109.00  1680.51
   19   17   20    2    109.00  1680.51
   17   20   21    2    109.00  1680.51
   17   20   22    2    111.00   530.00
   17   20   26    2    109.50   520.00
   21   20   22    2    108.53   443.00
   21   20   26    2    108.00   465.00
   22   20   26    2    109.50   520.00
   20   22   23    2    110.00   285.00
   20   22   24    2    110.00   285.00
   20   22   25    2    110.00   285.00
   23   22   24    2    108.53   443.00
   23   22   25    2    108.53   443.00
   24   22   25    2    108.53   443.00
   20   26   27    2    110.30   524.00
   20   26   28    2    110.30   524.00
   20   26   29    2    110.30   524.00
   27   26   28    2    108.53   443.00
   27   26   29    2    108.53   443.00
   28   26   29    2    108.53   443.00
   15   30   31    2    116.00   465.00
   15   30   32    2    122.00   700.00
   31   30   32    2    120.00   390.00
   30   32   33    2    124.00   730.00
   30   32   34    2    115.00   610.00
   33   32   34    2    121.00   685.00
   32   34   35    2    111.00   530.00
   32   34   36    2    109.50   520.00
   32   34   46    2    109.50   520.00
   35   34   36    2    108.00   465.00
   35   34   46    2    108.00   465.00
   36   34   46    2    115.00   610.00
   34   36   37    2    108.00   465.00
   34   36   38    2    109.50   520.00
   34   36   42    2    111.00   530.00
   37   36   38    2    109.00  1680.51
   37   36   42    2    109.00  1680.51
   38   36   42    2    109.50   520.00
   36   38   39    2    111.40   532.00
   36   38   40    2    111.40   532.00
   36   38   41    2    111.40   532.00
   39   38   40    2    108.00   465.00
   39   38   41    2    108.00   465.00
   40   38   41    2    108.00   465.00
   36   42   43    2    111.30   632.00
   36   42   44    2    111.30   632.00
   36   42   45    2    111.30   632.00
   43   42   44    2    108.53   443.00
   43   42   45    2    108.53   443.00
   44   42   45    2    108.53   443.00
   34   46   47    2    116.00   465.00
   34   46   48    2    122.00   700.00
   47   46   48    2    120.00   390.00
   46   48   49    2    124.00   730.00
   46   48   50    2    115.00   610.00
   49   48   50    2    121.00   685.00
   48   50   51    2    111.00   530.00
   48   50   52    2    109.50   520.00
   48   50   62    2    108.00   465.00
   51   50   52    2    108.00   465.00
   51   50   62    2    108.00   465.00
   52   50   62    2    115.00   610.00
   50   52   53    2    108.53   443.00
   50   52   54    2    109.50   520.00
   50   52   58    2    111.00   530.00
   53   52   54    2    108.53   443.00
   53   52   58    2    109.50   285.00
   54   52   58    2    109.50   520.00
   52   54   55    2    111.00   530.00
   52   54   56    2    111.00   530.00
   52   54   57    2    111.00   530.00
   55   54   56    2    108.53   443.00
   55   54   57    2    108.53   443.00
   56   54   57    2    108.53   443.00
   52   58   59    2    111.00   530.00
   52   58   60    2    111.00   530.00
   52   58   61    2    111.00   530.00
   59   58   60    2    108.53   443.00
   59   58   61    2    108.53   443.00
   60   58   61    2    108.53   443.00
   50   62   63    2    116.00   465.00
   50   62   64    2    122.00   700.00
   63   62   64    2    120.00   390.00
   62   64   65    2    124.00   730.00
   62   64   66    2    115.00   610.00
   65   64   66    2    121.00   685.00
   64   66   67    2    106.75   503.00
   64   66   68    2    111.00   530.00
   64   66   69    2    111.00   530.00
   67   66   68    2    108.00   465.00
   67   66   69    2    109.00  1680.51
   68   66   69    2    109.50   285.00
   66   69   70    2    106.75   503.00
   66   69   71    2    111.00   530.00
   66   69   75    2    111.00   530.00
   70   69   71    2    108.00   465.00
   70   69   75    2    108.00   465.00
   71   69   75    2    111.00   530.00
   69   71   72    2    110.30   524.00
   69   71   73    2    110.30   524.00
   69   71   74    2    110.30   524.00
   72   71   73    2    108.53   443.00
   72   71   74    2    108.53   443.00
   73   71   74    2    108.53   443.00
   69   75   76    2    110.00   285.00
   69   75   77    2    110.00   285.00
   69   75   78    2    110.00   285.00
   76   75   77    2    108.00   465.00
   76   75   78    2    108.00   465.00
   77   75   78    2    108.00   465.00
[ dihedrals ]
; GROMOS improper dihedrals
;  ai   aj   ak   al  funct   angle     fc
   64   62   65   66    2      0.00   167.36
   62   50   63   64    2      0.00   167.36
   48   46   49   50    2      0.00   167.36
   46   34   47   48    2      0.00   167.36
   32   30   33   34    2      0.00   167.36
   30   15   31   32    2      0.00   167.36
[ dihedrals ]
;  ai   aj   ak   al  funct    ph0      cp     mult
    3    2    4    6    1    180.00     1.00    6
    4    8   11   15    1      0.00     5.92    3
    6    4    8   11    1      0.00     5.92    3
    8    4    6    7    1      0.00     1.26    3
   13   11   15   30    1      0.00     5.92    3
   15   11   13   14    1      0.00     1.26    3
   15   17   20   22    1      0.00     5.92    3
   15   30   32   34    1    180.00    33.50    2
   17   15   30   32    1      0.00     3.77    6
   17   20   22   23    1      0.00     5.92    3
   17   20   26   27    1      0.00     5.92    3
   30   15   17   20    1      0.00     5.92    3
   32   34   46   48    1    180.00     1.00    6
   33   32   34   46    1    180.00     1.00    6
   34   36   38   39    1      0.00     5.92    3
   34   36   42   43    1      0.00     5.92    3
   34   46   48   50    1    180.00    33.50    2
   46   34   36   38    1      0.00     5.92    3
   48   50   62   64    1    180.00     1.00    6
   49   48   50   62    1    180.00     1.00    6
   50   52   54   55    1      0.00     5.92    3
   50   52   58   59    1      0.00     5.92    3
   50   62   64   66    1    180.00    33.50    2
   62   50   52   54    1      0.00     5.92    3
   64   66   69   71    1      0.00     5.92    3
   65   64   66   69    1      0.00     1.00    6
   66   69   71   72    1      0.00     5.92    3
   66   69   75   76    1      0.00     5.92    3
[ exclusions ]
;  ai   aj  funct  ;  GROMOS 1-4 exclusions