[ moleculetype ]
; Name   nrexcl
6VXB     3
[ atoms ]
;  nr  type  resnr  resid  atom  cgnr  charge    mass
    1    HC    1    6VXB    H17    1    0.132   1.0080
    2  CAro    1    6VXB    C22    2   -0.130  12.0110
    3  CAro    1    6VXB    C21    3   -0.128  12.0110
    4    HC    1    6VXB    H16    4    0.133   1.0080
    5  CAro    1    6VXB    C20    5   -0.125  12.0110
    6    HC    1    6VXB    H15    6    0.131   1.0080
    7  CAro    1    6VXB    C19    7   -0.069  12.0110
    8  CAro    1    6VXB    C24    8   -0.125  12.0110
    9    HC    1    6VXB    H19    9    0.131   1.0080
   10  CAro    1    6VXB    C23   10   -0.128  12.0110
   11    HC    1    6VXB    H18   11    0.133   1.0080
   12     C    1    6VXB    C18   12   -0.138  12.0110
   13    HC    1    6VXB    H13   13    0.095   1.0080
   14    HC    1    6VXB    H14   14    0.087   1.0080
   15     C    1    6VXB    C17   15   -0.010  12.0110
   16    HC    1    6VXB    H12   16    0.134   1.0080
   17     C    1    6VXB    C15   17   -0.044  12.0110
   18    HC    1    6VXB    H09   18    0.118   1.0080
   19    HC    1    6VXB    H10   19    0.068   1.0080
   20  OAlc    1    6VXB    O14   20   -0.321  15.9994
   21  HS14    1    6VXB    H08   21    0.194   1.0080
   22     N    1    6VXB    N16   22   -0.363  14.0067
   23  HS14    1    6VXB    H11   23    0.252   1.0080
   24  CPos    1    6VXB    C27   24    0.291  12.0110
   25 OEOpt    1    6VXB    O28   25   -0.379  15.9994
   26     C    1    6VXB    C26   26    0.017  12.0110
   27    HC    1    6VXB    H21   27    0.122   1.0080
   28     C    1    6VXB    C29   28   -0.106  12.0110
   29    HC    1    6VXB    H22   29    0.121   1.0080
   30     C    1    6VXB    C30   30   -0.213  12.0110
   31    HC    1    6VXB    H23   31    0.081   1.0080
   32    HC    1    6VXB    H24   32    0.081   1.0080
   33    HC    1    6VXB    H25   33    0.081   1.0080
   34     C    1    6VXB    C31   34   -0.223  12.0110
   35    HC    1    6VXB    H26   35    0.081   1.0080
   36    HC    1    6VXB    H27   36    0.081   1.0080
   37    HC    1    6VXB    H28   37    0.081   1.0080
   38     N    1    6VXB    N25   38   -0.361  14.0067
   39  HS14    1    6VXB    H20   39    0.266   1.0080
   40  CPos    1    6VXB    C32   40    0.298  12.0110
   41 OEOpt    1    6VXB    O33   41   -0.396  15.9994
   42     C    1    6VXB    C34   42   -0.069  12.0110
   43    HC    1    6VXB    H29   43    0.117   1.0080
   44     C    1    6VXB    C36   44   -0.864  12.0110
   45    HC    1    6VXB    H32   45    0.166   1.0080
   46    HC    1    6VXB    H33   46    0.177   1.0080
   47 SDmso    1    6VXB     S1   47    2.764  32.0600
   48    OM    1    6VXB     O2   48   -0.922  15.9994
   49    OM    1    6VXB     O3   49   -0.941  15.9994
   50     C    1    6VXB    C38   50   -0.692  12.0110
   51     C    1    6VXB    C37   51   -0.201  12.0110
   52    HC    1    6VXB    H34   52    0.096   1.0080
   53    HC    1    6VXB    H35   53    0.096   1.0080
   54    HC    1    6VXB    H36   54    0.096   1.0080
   55     C    1    6VXB    C39   55   -0.201  12.0110
   56    HC    1    6VXB    H37   56    0.096   1.0080
   57    HC    1    6VXB    H38   57    0.096   1.0080
   58    HC    1    6VXB    H39   58    0.096   1.0080
   59     C    1    6VXB    C40   59   -0.201  12.0110
   60    HC    1    6VXB    H40   60    0.096   1.0080
   61    HC    1    6VXB    H41   61    0.096   1.0080
   62    HC    1    6VXB    H42   62    0.096   1.0080
   63     C    1    6VXB    C35   63   -0.120  12.0110
   64    HC    1    6VXB    H30   64    0.116   1.0080
   65    HC    1    6VXB    H31   65    0.112   1.0080
   66  CAro    1    6VXB     C7   66   -0.070  12.0110
   67  CAro    1    6VXB     C6   67   -0.135  12.0110
   68    HC    1    6VXB    H03   68    0.146   1.0080
   69  CAro    1    6VXB     C5   69   -0.119  12.0110
   70    HC    1    6VXB    H02   70    0.141   1.0080
   71  CAro    1    6VXB     C4   71   -0.122  12.0110
   72    HC    1    6VXB    H01   72    0.134   1.0080
   73  CAro    1    6VXB     C9   73   -0.036  12.0110
   74  CAro    1    6VXB     C8   74   -0.033  12.0110
   75  CAro    1    6VXB    C13   75   -0.125  12.0110
   76    HC    1    6VXB    H07   76    0.137   1.0080
   77  CAro    1    6VXB    C12   77   -0.126  12.0110
   78    HC    1    6VXB    H06   78    0.133   1.0080
   79  CAro    1    6VXB    C11   79   -0.128  12.0110
   80    HC    1    6VXB    H05   80    0.133   1.0080
   81  CAro    1    6VXB    C10   81   -0.118  12.0110
   82    HC    1    6VXB    H04   82    0.133   1.0080
; total charge of the molecule:  -0.000
[ bonds ]
;  ai   aj  funct   c0         c1
    1    2    2   0.1090   1.2300e+07
    2    3    2   0.1390   8.6600e+06
    2   10    2   0.1390   8.6600e+06
    3    4    2   0.1100   1.2100e+07
    3    5    2   0.1390   8.6600e+06
    5    6    2   0.1100   1.2100e+07
    5    7    2   0.1390   8.6600e+06
    7    8    2   0.1390   8.6600e+06
    7   12    2   0.1490   1.4189e+07
    8    9    2   0.1100   1.2100e+07
    8   10    2   0.1390   8.6600e+06
   10   11    2   0.1100   1.2100e+07
   12   13    2   0.1120   3.7000e+07
   12   14    2   0.1120   3.7000e+07
   12   15    2   0.1540   4.2166e+06
   15   16    2   0.1130   7.0483e+06
   15   17    2   0.1540   4.2166e+06
   15   22    2   0.1440   3.3758e+05
   17   18    2   0.1120   3.7000e+07
   17   19    2   0.1120   3.7000e+07
   17   20    2   0.1410   6.5389e+06
   20   21    2   0.0971   7.9547e+06
   22   23    2   0.1000   1.8700e+07
   22   24    2   0.1380   1.1000e+07
   24   25    2   0.1250   1.3400e+07
   24   26    2   0.1560   3.0819e+06
   26   27    2   0.1130   7.0483e+06
   26   28    2   0.1540   4.2166e+06
   26   38    2   0.1440   3.3758e+05
   28   29    2   0.1130   7.0483e+06
   28   30    2   0.1520   5.4300e+06
   28   34    2   0.1520   5.4300e+06
   30   31    2   0.1120   3.7000e+07
   30   32    2   0.1120   3.7000e+07
   30   33    2   0.1120   3.7000e+07
   34   35    2   0.1120   3.7000e+07
   34   36    2   0.1120   3.7000e+07
   34   37    2   0.1120   3.7000e+07
   38   39    2   0.1000   1.8700e+07
   38   40    2   0.1380   1.1000e+07
   40   41    2   0.1250   1.3400e+07
   40   42    2   0.1530   7.1500e+06
   42   43    2   0.1130   7.0483e+06
   42   44    2   0.1520   5.4300e+06
   42   63    2   0.1520   5.4300e+06
   44   45    2   0.1120   3.7000e+07
   44   46    2   0.1130   7.0483e+06
   44   47    2   0.1710   2.0519e+06
   47   48    2   0.1410   6.5389e+06
   47   49    2   0.1410   6.5389e+06
   47   50    2   0.1740   2.6424e+06
   50   51    2   0.1520   5.4300e+06
   50   55    2   0.1520   5.4300e+06
   50   59    2   0.1520   5.4300e+06
   51   52    2   0.1120   3.7000e+07
   51   53    2   0.1120   3.7000e+07
   51   54    2   0.1120   3.7000e+07
   55   56    2   0.1120   3.7000e+07
   55   57    2   0.1120   3.7000e+07
   55   58    2   0.1120   3.7000e+07
   59   60    2   0.1120   3.7000e+07
   59   61    2   0.1120   3.7000e+07
   59   62    2   0.1120   3.7000e+07
   63   64    2   0.1130   7.0483e+06
   63   65    2   0.1130   7.0483e+06
   63   66    2   0.1490   1.4189e+07
   66   67    2   0.1380   1.1000e+07
   66   74    2   0.1435   6.1000e+06
   67   68    2   0.1100   1.2100e+07
   67   69    2   0.1420   3.2236e+06
   69   70    2   0.1100   1.2100e+07
   69   71    2   0.1380   1.1000e+07
   71   72    2   0.1100   1.2100e+07
   71   73    2   0.1420   3.2236e+06
   73   74    2   0.1420   3.2236e+06
   73   81    2   0.1420   3.2236e+06
   74   75    2   0.1420   3.2236e+06
   75   76    2   0.1100   1.2100e+07
   75   77    2   0.1380   1.1000e+07
   77   78    2   0.1100   1.2100e+07
   77   79    2   0.1410   6.5389e+06
   79   80    2   0.1090   1.2300e+07
   79   81    2   0.1380   1.1000e+07
   81   82    2   0.1100   1.2100e+07
[ pairs ]
;  ai   aj  funct  ;  all 1-4 pairs but the ones excluded in GROMOS itp
    1    4    1
    1    5    1
    1    8    1
    1   11    1
    2    6    1
    2    9    1
    3   11    1
    3   12    1
    4    6    1
    4    7    1
    4   10    1
    5    9    1
    5   13    1
    5   14    1
    5   15    1
    6    8    1
    6   12    1
    7   11    1
    7   16    1
    7   17    1
    7   22    1
    8   13    1
    8   14    1
    8   15    1
    9   11    1
    9   12    1
   10   12    1
   12   18    1
   12   19    1
   12   20    1
   12   23    1
   12   24    1
   13   16    1
   13   17    1
   13   22    1
   14   16    1
   14   17    1
   14   22    1
   15   21    1
   15   25    1
   15   26    1
   16   18    1
   16   19    1
   16   20    1
   16   23    1
   16   24    1
   17   23    1
   17   24    1
   18   21    1
   18   22    1
   19   21    1
   19   22    1
   20   22    1
   22   27    1
   22   28    1
   22   38    1
   23   25    1
   23   26    1
   24   29    1
   24   30    1
   24   34    1
   24   39    1
   24   40    1
   25   27    1
   25   28    1
   25   38    1
   26   31    1
   26   32    1
   26   33    1
   26   35    1
   26   36    1
   26   37    1
   26   41    1
   26   42    1
   27   29    1
   27   30    1
   27   34    1
   27   39    1
   27   40    1
   28   39    1
   28   40    1
   29   31    1
   29   32    1
   29   33    1
   29   35    1
   29   36    1
   29   37    1
   29   38    1
   30   35    1
   30   36    1
   30   37    1
   30   38    1
   31   34    1
   32   34    1
   33   34    1
   34   38    1
   38   43    1
   38   44    1
   38   63    1
   39   41    1
   39   42    1
   40   45    1
   40   46    1
   40   47    1
   40   64    1
   40   65    1
   40   66    1
   41   43    1
   41   44    1
   41   63    1
   42   48    1
   42   49    1
   42   50    1
   42   67    1
   42   74    1
   43   45    1
   43   46    1
   43   47    1
   43   64    1
   43   65    1
   43   66    1
   44   51    1
   44   55    1
   44   59    1
   44   64    1
   44   65    1
   44   66    1
   45   48    1
   45   49    1
   45   50    1
   45   63    1
   46   48    1
   46   49    1
   46   50    1
   46   63    1
   47   52    1
   47   53    1
   47   54    1
   47   56    1
   47   57    1
   47   58    1
   47   60    1
   47   61    1
   47   62    1
   47   63    1
   48   51    1
   48   55    1
   48   59    1
   49   51    1
   49   55    1
   49   59    1
   51   56    1
   51   57    1
   51   58    1
   51   60    1
   51   61    1
   51   62    1
   52   55    1
   52   59    1
   53   55    1
   53   59    1
   54   55    1
   54   59    1
   55   60    1
   55   61    1
   55   62    1
   56   59    1
   57   59    1
   58   59    1
   63   68    1
   63   69    1
   63   73    1
   63   75    1
   64   67    1
   64   74    1
   65   67    1
   65   74    1
   66   70    1
   66   76    1
   66   77    1
   66   81    1
   67   72    1
   67   75    1
   68   70    1
   68   71    1
   68   74    1
   69   81    1
   70   72    1
   70   73    1
   71   75    1
   71   79    1
   71   82    1
   72   74    1
   72   81    1
   73   76    1
   73   80    1
   74   78    1
   74   82    1
   75   80    1
   76   78    1
   76   79    1
   77   82    1
   78   80    1
   78   81    1
   80   82    1
[ angles ]
;  ai   aj   ak  funct   angle     fc
    1    2    3    2    120.00   505.00
    1    2   10    2    120.00   505.00
    3    2   10    2    120.00   560.00
    2    3    4    2    120.00   505.00
    2    3    5    2    120.00   560.00
    4    3    5    2    120.00   505.00
    3    5    6    2    120.00   505.00
    3    5    7    2    120.00   560.00
    6    5    7    2    120.00   505.00
    5    7    8    2    120.00   560.00
    5    7   12    2    120.00   560.00
    8    7   12    2    120.00   560.00
    7    8    9    2    120.00   505.00
    7    8   10    2    120.00   560.00
    9    8   10    2    120.00   505.00
    2   10    8    2    120.00   560.00
    2   10   11    2    120.00   505.00
    8   10   11    2    120.00   505.00
    7   12   13    2    109.00  1680.51
    7   12   14    2    110.00   285.00
    7   12   15    2    111.00   530.00
   13   12   14    2    107.57   484.00
   13   12   15    2    107.57   484.00
   14   12   15    2    110.00   285.00
   12   15   16    2    108.00   465.00
   12   15   17    2    109.50   520.00
   12   15   22    2    111.00   530.00
   16   15   17    2    106.75   503.00
   16   15   22    2    107.60   507.00
   17   15   22    2    111.00   530.00
   15   17   18    2    110.30   524.00
   15   17   19    2    109.00  1680.51
   15   17   20    2    115.00   610.00
   18   17   19    2    109.50   285.00
   18   17   20    2    104.00   490.00
   19   17   20    2    110.30   524.00
   17   20   21    2    109.50   450.00
   15   22   23    2    116.00   465.00
   15   22   24    2    122.00   700.00
   23   22   24    2    120.00   390.00
   22   24   25    2    124.00   730.00
   22   24   26    2    115.00   610.00
   25   24   26    2    121.00   685.00
   24   26   27    2    108.00   465.00
   24   26   28    2    109.50   520.00
   24   26   38    2    109.50   520.00
   27   26   28    2    108.00   465.00
   27   26   38    2    108.00   465.00
   28   26   38    2    115.00   610.00
   26   28   29    2    108.00   465.00
   26   28   30    2    109.50   520.00
   26   28   34    2    111.00   530.00
   29   28   30    2    108.53   443.00
   29   28   34    2    109.00  1680.51
   30   28   34    2    109.50   520.00
   28   30   31    2    110.30   524.00
   28   30   32    2    110.30   524.00
   28   30   33    2    110.30   524.00
   31   30   32    2    109.00  1680.51
   31   30   33    2    109.00  1680.51
   32   30   33    2    109.00  1680.51
   28   34   35    2    111.30   632.00
   28   34   36    2    111.30   632.00
   28   34   37    2    111.30   632.00
   35   34   36    2    108.00   465.00
   35   34   37    2    108.00   465.00
   36   34   37    2    108.00   465.00
   26   38   39    2    116.00   465.00
   26   38   40    2    122.00   700.00
   39   38   40    2    120.00   390.00
   38   40   41    2    124.00   730.00
   38   40   42    2    120.00   560.00
   41   40   42    2    121.00   685.00
   40   42   43    2    109.50   285.00
   40   42   44    2    109.50   520.00
   40   42   63    2    109.50   520.00
   43   42   44    2    109.60   450.00
   43   42   63    2    109.00  1680.51
   44   42   63    2    111.00   530.00
   42   44   45    2    108.53   443.00
   42   44   46    2    107.00  2726.16
   42   44   47    2    113.00   545.00
   45   44   46    2    104.00   490.00
   45   44   47    2    113.00   545.00
   46   44   47    2    109.00  1680.51
   44   47   48    2    108.53   443.00
   44   47   49    2    109.60   450.00
   44   47   50    2    100.00   475.00
   48   47   49    2    116.00   465.00
   48   47   50    2    110.00   285.00
   49   47   50    2    109.60   450.00
   47   50   51    2    113.00   545.00
   47   50   55    2    113.00   545.00
   47   50   59    2    113.00   545.00
   51   50   55    2    109.50   520.00
   51   50   59    2    109.50   520.00
   55   50   59    2    109.50   520.00
   50   51   52    2    110.30   524.00
   50   51   53    2    110.30   524.00
   50   51   54    2    110.30   524.00
   52   51   53    2    108.00   465.00
   52   51   54    2    108.00   465.00
   53   51   54    2    108.00   465.00
   50   55   56    2    110.30   524.00
   50   55   57    2    110.30   524.00
   50   55   58    2    110.30   524.00
   56   55   57    2    108.00   465.00
   56   55   58    2    108.00   465.00
   57   55   58    2    108.00   465.00
   50   59   60    2    110.30   524.00
   50   59   61    2    110.30   524.00
   50   59   62    2    110.30   524.00
   60   59   61    2    108.00   465.00
   60   59   62    2    108.00   465.00
   61   59   62    2    108.00   465.00
   42   63   64    2    107.00  2726.16
   42   63   65    2    107.60   507.00
   42   63   66    2    120.00   560.00
   64   63   65    2    107.00  2726.16
   64   63   66    2    109.50   285.00
   65   63   66    2    108.00   465.00
   63   66   67    2    126.00   640.00
   63   66   74    2    120.00   560.00
   67   66   74    2    120.00   560.00
   66   67   68    2    120.00   505.00
   66   67   69    2    120.00   560.00
   68   67   69    2    120.00   505.00
   67   69   70    2    120.00   505.00
   67   69   71    2    120.00   560.00
   70   69   71    2    120.00   505.00
   69   71   72    2    120.00   505.00
   69   71   73    2    120.00   560.00
   72   71   73    2    120.00   505.00
   71   73   74    2    120.00   560.00
   71   73   81    2    120.00   560.00
   74   73   81    2    120.00   560.00
   66   74   73    2    120.00   560.00
   66   74   75    2    120.00   560.00
   73   74   75    2    120.00   560.00
   74   75   76    2    120.00   505.00
   74   75   77    2    120.00   560.00
   76   75   77    2    120.00   505.00
   75   77   78    2    120.00   505.00
   75   77   79    2    120.00   560.00
   78   77   79    2    120.00   505.00
   77   79   80    2    120.00   505.00
   77   79   81    2    120.00   560.00
   80   79   81    2    120.00   505.00
   73   81   79    2    120.00   560.00
   73   81   82    2    120.00   505.00
   79   81   82    2    120.00   505.00
[ dihedrals ]
; GROMOS improper dihedrals
;  ai   aj   ak   al  funct   angle     fc
   71   69   72   73    2      0.00   167.36
   69   67   70   71    2      0.00   167.36
   67   66   68   69    2      0.00   167.36
   66   63   67   74    2      0.00   167.36
   74   66   73   75    2      0.00   167.36
   73   71   74   81    2      0.00   167.36
   81   73   79   82    2      0.00   167.36
   79   77   80   81    2      0.00   167.36
   77   75   78   79    2      0.00   167.36
   75   74   76   77    2      0.00   167.36
   22   15   23   24    2      0.00   167.36
    7    5    8   12    2      0.00   167.36
    5    3    6    7    2      0.00   167.36
    3    2    4    5    2      0.00   167.36
    2    1    3   10    2      0.00   167.36
   10    2    8   11    2      0.00   167.36
    8    7    9   10    2      0.00   167.36
   38   26   39   40    2      0.00   167.36
   24   22   25   26    2      0.00   167.36
   40   38   41   42    2      0.00   167.36
[ dihedrals ]
;  ai   aj   ak   al  funct    ph0      cp     mult
    2    3    5    7    1    180.00    41.80    2
    3    2   10    8    1    180.00    41.80    2
    3    5    7    8    1    180.00    41.80    2
    5    7    8   10    1    180.00    41.80    2
    5    7   12   15    1    180.00     1.00    6
    7    8   10    2    1    180.00    41.80    2
    7   12   15   17    1      0.00     5.92    3
   10    2    3    5    1    180.00    41.80    2
   15   17   20   21    1      0.00     1.26    3
   15   22   24   26    1    180.00    33.50    2
   17   15   22   24    1      0.00     3.77    6
   22   15   17   20    1      0.00     5.92    3
   22   24   26   38    1    180.00     1.00    6
   24   26   38   40    1      0.00     3.77    6
   26   28   30   31    1      0.00     5.92    3
   26   28   34   35    1      0.00     5.92    3
   26   38   40   41    1    180.00    33.50    2
   38   26   28   30    1      0.00     5.92    3
   38   40   42   63    1      0.00     1.00    6
   40   42   44   47    1    180.00     1.00    3
   40   42   63   66    1      0.00     5.92    3
   42   44   47   48    1      0.00     2.93    3
   42   63   66   67    1    180.00     1.00    6
   47   50   51   52    1      0.00     5.92    3
   47   50   55   56    1      0.00     5.92    3
   47   50   59   60    1      0.00     5.92    3
   48   47   50   51    1      0.00     2.93    3
   66   67   69   71    1    180.00    41.80    2
   67   66   74   73    1    180.00    41.80    2
   67   69   71   73    1    180.00    41.80    2
   69   71   73   74    1    180.00    41.80    2
   73   74   75   77    1    180.00    41.80    2
   74   66   67   69    1    180.00    41.80    2
   74   73   81   79    1    180.00    41.80    2
   74   75   77   79    1    180.00    41.80    2
   75   77   79   81    1    180.00    41.80    2
   77   79   81   73    1    180.00    41.80    2
   81   73   74   75    1    180.00    41.80    2
[ exclusions ]
;  ai   aj  funct  ;  GROMOS 1-4 exclusions
    2    7
    3    8
    5   10
   66   71
   67   73
   69   74
   73   77
   74   79
   75   81