[ moleculetype ]
; Name   nrexcl
5KVY     3
[ atoms ]
;  nr  type  resnr  resid  atom  cgnr  charge    mass
    1  HS14    1    5KVY    H64    1    0.278   1.0080
    2  NPri    1    5KVY     N4    2   -0.367  14.0067
    3  HS14    1    5KVY    H63    3    0.278   1.0080
    4  CPos    1    5KVY     C6    4    0.382  12.0110
    5  NPri    1    5KVY     N3    5   -0.367  14.0067
    6  HS14    1    5KVY    H61    6    0.278   1.0080
    7  HS14    1    5KVY    H62    7    0.278   1.0080
    8  NPri    1    5KVY     N2    8   -0.301  14.0067
    9  HS14    1    5KVY    H60    9    0.267   1.0080
   10  CPos    1    5KVY     C5   10   -0.051  12.0110
   11    HC    1    5KVY    H16   11    0.125   1.0080
   12    HC    1    5KVY    H26   12    0.136   1.0080
   13     C    1    5KVY     C4   13   -0.206  12.0110
   14    HC    1    5KVY    H30   14    0.089   1.0080
   15    HC    1    5KVY    H39   15    0.149   1.0080
   16     C    1    5KVY     C3   16   -0.165  12.0110
   17    HC    1    5KVY    H28   17    0.090   1.0080
   18    HC    1    5KVY    H35   18    0.124   1.0080
   19     C    1    5KVY     C1   19   -0.030  12.0110
   20    HC    1    5KVY    H23   20    0.097   1.0080
   21  NPri    1    5KVY     N1   21   -0.334  14.0067
   22  HS14    1    5KVY    H58   22    0.170   1.0080
   23  HS14    1    5KVY    H59   23    0.170   1.0080
   24  CPos    1    5KVY     C2   24    0.245  12.0110
   25 OEOpt    1    5KVY     O1   25   -0.353  15.9994
   26     N    1    5KVY     N5   26   -0.349  14.0067
   27  HS14    1    5KVY    H65   27    0.227   1.0080
   28     C    1    5KVY     C7   28    0.008  12.0110
   29    HC    1    5KVY     H3   29    0.146   1.0080
   30     C    1    5KVY     C9   30   -0.106  12.0110
   31    HC    1    5KVY    H45   31    0.101   1.0080
   32     C    1    5KVY    C10   32   -0.224  12.0110
   33    HC    1    5KVY    H20   33    0.087   1.0080
   34    HC    1    5KVY    H21   34    0.087   1.0080
   35    HC    1    5KVY    H51   35    0.087   1.0080
   36     C    1    5KVY    C11   36   -0.209  12.0110
   37    HC    1    5KVY     H4   37    0.083   1.0080
   38    HC    1    5KVY    H24   38    0.083   1.0080
   39    HC    1    5KVY    H48   39    0.083   1.0080
   40  CPos    1    5KVY     C8   40    0.278  12.0110
   41 OEOpt    1    5KVY     O2   41   -0.432  15.9994
   42     N    1    5KVY     N6   42   -0.344  14.0067
   43  HS14    1    5KVY    H66   43    0.242   1.0080
   44     C    1    5KVY    C12   44    0.021  12.0110
   45    HC    1    5KVY    H27   45    0.120   1.0080
   46     C    1    5KVY    C14   46   -0.164  12.0110
   47    HC    1    5KVY     H2   47    0.094   1.0080
   48    HC    1    5KVY     H7   48    0.098   1.0080
   49     C    1    5KVY    C15   49   -0.110  12.0110
   50    HC    1    5KVY    H56   50    0.087   1.0080
   51     C    1    5KVY    C16   51   -0.209  12.0110
   52    HC    1    5KVY     H1   52    0.071   1.0080
   53    HC    1    5KVY    H34   53    0.071   1.0080
   54    HC    1    5KVY    H47   54    0.071   1.0080
   55     C    1    5KVY    C17   55   -0.209  12.0110
   56    HC    1    5KVY    H14   56    0.073   1.0080
   57    HC    1    5KVY    H15   57    0.073   1.0080
   58    HC    1    5KVY    H43   58    0.073   1.0080
   59     C    1    5KVY    C13   59   -0.099  12.0110
   60    HC    1    5KVY     H5   60    0.096   1.0080
   61    HC    1    5KVY    H40   61    0.089   1.0080
   62  NOpt    1    5KVY     N7   62   -0.290  14.0067
   63  HS14    1    5KVY    H67   63    0.172   1.0080
   64     C    1    5KVY    C18   64   -0.030  12.0110
   65    HC    1    5KVY    H38   65    0.118   1.0080
   66     C    1    5KVY    C20   66   -0.119  12.0110
   67    HC    1    5KVY     H8   67    0.101   1.0080
   68    HC    1    5KVY    H33   68    0.113   1.0080
   69  CAro    1    5KVY    C21   69   -0.097  12.0110
   70  CAro    1    5KVY    C22   70   -0.129  12.0110
   71    HC    1    5KVY    H36   71    0.132   1.0080
   72  CAro    1    5KVY    C24   72   -0.122  12.0110
   73    HC    1    5KVY     H9   73    0.136   1.0080
   74  CAro    1    5KVY    C26   74   -0.114  12.0110
   75    HC    1    5KVY    H19   75    0.139   1.0080
   76  CAro    1    5KVY    C25   76   -0.122  12.0110
   77    HC    1    5KVY    H10   77    0.136   1.0080
   78  CAro    1    5KVY    C23   78   -0.129  12.0110
   79    HC    1    5KVY    H42   79    0.132   1.0080
   80  CPos    1    5KVY    C19   80    0.269  12.0110
   81 OEOpt    1    5KVY     O3   81   -0.391  15.9994
   82     N    1    5KVY     N8   82   -0.363  14.0067
   83  HS14    1    5KVY    H68   83    0.254   1.0080
   84     C    1    5KVY    C27   84    0.020  12.0110
   85    HC    1    5KVY    H46   85    0.134   1.0080
   86     C    1    5KVY    C29   86   -0.175  12.0110
   87    HC    1    5KVY    H25   87    0.122   1.0080
   88    HC    1    5KVY    H41   88    0.113   1.0080
   89     C    1    5KVY    C30   89   -0.161  12.0110
   90    HC    1    5KVY    H44   90    0.126   1.0080
   91    HC    1    5KVY    H50   91    0.130   1.0080
   92  CPos    1    5KVY    C31   92    0.308  12.0110
   93 OEOpt    1    5KVY     O5   93   -0.363  15.9994
   94    OA    1    5KVY     O6   94   -0.313  15.9994
   95  HS14    1    5KVY    H11   95    0.247   1.0080
   96  CPos    1    5KVY    C28   96    0.288  12.0110
   97 OEOpt    1    5KVY     O4   97   -0.368  15.9994
   98     N    1    5KVY     N9   98   -0.362  14.0067
   99  HS14    1    5KVY    H69   99    0.249   1.0080
  100     C    1    5KVY    C32  100    0.009  12.0110
  101    HC    1    5KVY     H6  101    0.138   1.0080
  102     C    1    5KVY    C34  102   -0.228  12.0110
  103    HC    1    5KVY    H12  103    0.093   1.0080
  104    HC    1    5KVY    H52  104    0.093   1.0080
  105    HC    1    5KVY    H57  105    0.093   1.0080
  106  CPos    1    5KVY    C33  106    0.289  12.0110
  107 OEOpt    1    5KVY     O7  107   -0.357  15.9994
  108     N    1    5KVY    N10  108   -0.379  14.0067
  109  HS14    1    5KVY    H70  109    0.223   1.0080
  110     C    1    5KVY    C35  110    0.004  12.0110
  111    HC    1    5KVY    H49  111    0.165   1.0080
  112  CPos    1    5KVY    C36  112    0.287  12.0110
  113 OEOpt    1    5KVY     O8  113   -0.355  15.9994
  114  NPri    1    5KVY    N11  114   -0.437  14.0067
  115  HS14    1    5KVY    H17  115    0.223   1.0080
  116  HS14    1    5KVY    H53  116    0.223   1.0080
  117     C    1    5KVY    C37  117   -0.167  12.0110
  118    HC    1    5KVY    H29  118    0.080   1.0080
  119    HC    1    5KVY    H54  119    0.094   1.0080
  120     C    1    5KVY    C38  120   -0.162  12.0110
  121    HC    1    5KVY    H31  121    0.086   1.0080
  122    HC    1    5KVY    H37  122    0.103   1.0080
  123     C    1    5KVY    C39  123   -0.160  12.0110
  124    HC    1    5KVY    H13  124    0.073   1.0080
  125    HC    1    5KVY    H32  125    0.085   1.0080
  126     C    1    5KVY    C40  126   -0.211  12.0110
  127    HC    1    5KVY    H18  127    0.076   1.0080
  128    HC    1    5KVY    H22  128    0.076   1.0080
  129    HC    1    5KVY    H55  129    0.076   1.0080
; total charge of the molecule:   1.000
[ bonds ]
;  ai   aj  funct   c0         c1
    1    2    2   0.1000   1.8700e+07
    2    3    2   0.1000   1.8700e+07
    2    4    2   0.1380   1.1000e+07
    4    5    2   0.1380   1.1000e+07
    4    8    2   0.1380   1.1000e+07
    5    6    2   0.1000   1.8700e+07
    5    7    2   0.1000   1.8700e+07
    8    9    2   0.1000   1.8700e+07
    8   10    2   0.1450   5.2319e+06
   10   11    2   0.1130   7.0483e+06
   10   12    2   0.1130   7.0483e+06
   10   13    2   0.1530   7.1500e+06
   13   14    2   0.1120   3.7000e+07
   13   15    2   0.1130   7.0483e+06
   13   16    2   0.1520   5.4300e+06
   16   17    2   0.1120   3.7000e+07
   16   18    2   0.1130   7.0483e+06
   16   19    2   0.1540   4.2166e+06
   19   20    2   0.1130   7.0483e+06
   19   21    2   0.1440   3.3758e+05
   19   24    2   0.1560   3.0819e+06
   21   22    2   0.1000   1.8700e+07
   21   23    2   0.1000   1.8700e+07
   24   25    2   0.1250   1.3400e+07
   24   26    2   0.1380   1.1000e+07
   26   27    2   0.1000   1.8700e+07
   26   28    2   0.1440   3.3758e+05
   28   29    2   0.1130   7.0483e+06
   28   30    2   0.1540   4.2166e+06
   28   40    2   0.1560   3.0819e+06
   30   31    2   0.1130   7.0483e+06
   30   32    2   0.1520   5.4300e+06
   30   36    2   0.1520   5.4300e+06
   32   33    2   0.1120   3.7000e+07
   32   34    2   0.1120   3.7000e+07
   32   35    2   0.1120   3.7000e+07
   36   37    2   0.1120   3.7000e+07
   36   38    2   0.1120   3.7000e+07
   36   39    2   0.1120   3.7000e+07
   40   41    2   0.1250   1.3400e+07
   40   42    2   0.1360   1.0200e+07
   42   43    2   0.1000   1.8700e+07
   42   44    2   0.1450   5.2319e+06
   44   45    2   0.1130   7.0483e+06
   44   46    2   0.1530   7.1500e+06
   44   59    2   0.1560   3.0819e+06
   46   47    2   0.1120   3.7000e+07
   46   48    2   0.1120   3.7000e+07
   46   49    2   0.1520   5.4300e+06
   49   50    2   0.1130   7.0483e+06
   49   51    2   0.1520   5.4300e+06
   49   55    2   0.1520   5.4300e+06
   51   52    2   0.1120   3.7000e+07
   51   53    2   0.1120   3.7000e+07
   51   54    2   0.1120   3.7000e+07
   55   56    2   0.1120   3.7000e+07
   55   57    2   0.1120   3.7000e+07
   55   58    2   0.1120   3.7000e+07
   59   60    2   0.1130   7.0483e+06
   59   61    2   0.1130   7.0483e+06
   59   62    2   0.1450   5.2319e+06
   62   63    2   0.1000   1.8700e+07
   62   64    2   0.1450   5.2319e+06
   64   65    2   0.1130   7.0483e+06
   64   66    2   0.1540   4.2166e+06
   64   80    2   0.1560   3.0819e+06
   66   67    2   0.1120   3.7000e+07
   66   68    2   0.1130   7.0483e+06
   66   69    2   0.1490   1.4189e+07
   69   70    2   0.1400   8.5400e+06
   69   78    2   0.1400   8.5400e+06
   70   71    2   0.1100   1.2100e+07
   70   72    2   0.1390   8.6600e+06
   72   73    2   0.1100   1.2100e+07
   72   74    2   0.1390   8.6600e+06
   74   75    2   0.1090   1.2300e+07
   74   76    2   0.1390   8.6600e+06
   76   77    2   0.1100   1.2100e+07
   76   78    2   0.1390   8.6600e+06
   78   79    2   0.1100   1.2100e+07
   80   81    2   0.1250   1.3400e+07
   80   82    2   0.1380   1.1000e+07
   82   83    2   0.1000   1.8700e+07
   82   84    2   0.1440   3.3758e+05
   84   85    2   0.1130   7.0483e+06
   84   86    2   0.1530   7.1500e+06
   84   96    2   0.1560   3.0819e+06
   86   87    2   0.1120   3.7000e+07
   86   88    2   0.1120   3.7000e+07
   86   89    2   0.1520   5.4300e+06
   89   90    2   0.1120   3.7000e+07
   89   91    2   0.1120   3.7000e+07
   89   92    2   0.1500   8.3700e+06
   92   93    2   0.1230   1.6600e+07
   92   94    2   0.1360   1.0200e+07
   94   95    2   0.0972   1.9581e+07
   96   97    2   0.1250   1.3400e+07
   96   98    2   0.1380   1.1000e+07
   98   99    2   0.1000   1.8700e+07
   98  100    2   0.1440   3.3758e+05
  100  101    2   0.1130   7.0483e+06
  100  102    2   0.1530   7.1500e+06
  100  106    2   0.1560   3.0819e+06
  102  103    2   0.1120   3.7000e+07
  102  104    2   0.1120   3.7000e+07
  102  105    2   0.1120   3.7000e+07
  106  107    2   0.1250   1.3400e+07
  106  108    2   0.1380   1.1000e+07
  108  109    2   0.1000   1.8700e+07
  108  110    2   0.1440   3.3758e+05
  110  111    2   0.1140   3.8473e+07
  110  112    2   0.1540   4.2166e+06
  110  117    2   0.1530   7.1500e+06
  112  113    2   0.1250   1.3400e+07
  112  114    2   0.1380   1.1000e+07
  114  115    2   0.0985   8.2455e+07
  114  116    2   0.0985   8.2455e+07
  117  118    2   0.1120   3.7000e+07
  117  119    2   0.1120   3.7000e+07
  117  120    2   0.1520   5.4300e+06
  120  121    2   0.1120   3.7000e+07
  120  122    2   0.1120   3.7000e+07
  120  123    2   0.1520   5.4300e+06
  123  124    2   0.1120   3.7000e+07
  123  125    2   0.1120   3.7000e+07
  123  126    2   0.1510   3.7279e+06
  126  127    2   0.1120   3.7000e+07
  126  128    2   0.1120   3.7000e+07
  126  129    2   0.1120   3.7000e+07
[ pairs ]
;  ai   aj  funct  ;  all 1-4 pairs but the ones excluded in GROMOS itp
    1    5    1
    1    8    1
    2    6    1
    2    7    1
    2    9    1
    2   10    1
    3    5    1
    3    8    1
    4   11    1
    4   12    1
    4   13    1
    5    9    1
    5   10    1
    6    8    1
    7    8    1
    8   14    1
    8   15    1
    8   16    1
    9   11    1
    9   12    1
    9   13    1
   10   17    1
   10   18    1
   10   19    1
   11   14    1
   11   15    1
   11   16    1
   12   14    1
   12   15    1
   12   16    1
   13   20    1
   13   21    1
   13   24    1
   14   17    1
   14   18    1
   14   19    1
   15   17    1
   15   18    1
   15   19    1
   16   22    1
   16   23    1
   16   25    1
   16   26    1
   17   20    1
   17   21    1
   17   24    1
   18   20    1
   18   21    1
   18   24    1
   19   27    1
   19   28    1
   20   22    1
   20   23    1
   20   25    1
   20   26    1
   21   25    1
   21   26    1
   22   24    1
   23   24    1
   24   29    1
   24   30    1
   24   40    1
   25   27    1
   25   28    1
   26   31    1
   26   32    1
   26   36    1
   26   41    1
   26   42    1
   27   29    1
   27   30    1
   27   40    1
   28   33    1
   28   34    1
   28   35    1
   28   37    1
   28   38    1
   28   39    1
   28   43    1
   28   44    1
   29   31    1
   29   32    1
   29   36    1
   29   41    1
   29   42    1
   30   41    1
   30   42    1
   31   33    1
   31   34    1
   31   35    1
   31   37    1
   31   38    1
   31   39    1
   31   40    1
   32   37    1
   32   38    1
   32   39    1
   32   40    1
   33   36    1
   34   36    1
   35   36    1
   36   40    1
   40   45    1
   40   46    1
   40   59    1
   41   43    1
   41   44    1
   42   47    1
   42   48    1
   42   49    1
   42   60    1
   42   61    1
   42   62    1
   43   45    1
   43   46    1
   43   59    1
   44   50    1
   44   51    1
   44   55    1
   44   63    1
   44   64    1
   45   47    1
   45   48    1
   45   49    1
   45   60    1
   45   61    1
   45   62    1
   46   52    1
   46   53    1
   46   54    1
   46   56    1
   46   57    1
   46   58    1
   46   60    1
   46   61    1
   46   62    1
   47   50    1
   47   51    1
   47   55    1
   47   59    1
   48   50    1
   48   51    1
   48   55    1
   48   59    1
   49   59    1
   50   52    1
   50   53    1
   50   54    1
   50   56    1
   50   57    1
   50   58    1
   51   56    1
   51   57    1
   51   58    1
   52   55    1
   53   55    1
   54   55    1
   59   65    1
   59   66    1
   59   80    1
   60   63    1
   60   64    1
   61   63    1
   61   64    1
   62   67    1
   62   68    1
   62   69    1
   62   81    1
   62   82    1
   63   65    1
   63   66    1
   63   80    1
   64   70    1
   64   78    1
   64   83    1
   64   84    1
   65   67    1
   65   68    1
   65   69    1
   65   81    1
   65   82    1
   66   71    1
   66   72    1
   66   76    1
   66   79    1
   66   81    1
   66   82    1
   67   70    1
   67   78    1
   67   80    1
   68   70    1
   68   78    1
   68   80    1
   69   73    1
   69   77    1
   69   80    1
   70   75    1
   70   79    1
   71   73    1
   71   74    1
   71   78    1
   72   77    1
   73   75    1
   73   76    1
   74   79    1
   75   77    1
   75   78    1
   77   79    1
   80   85    1
   80   86    1
   80   96    1
   81   83    1
   81   84    1
   82   87    1
   82   88    1
   82   89    1
   82   97    1
   82   98    1
   83   85    1
   83   86    1
   83   96    1
   84   90    1
   84   91    1
   84   92    1
   84   99    1
   84  100    1
   85   87    1
   85   88    1
   85   89    1
   85   97    1
   85   98    1
   86   93    1
   86   94    1
   86   97    1
   86   98    1
   87   90    1
   87   91    1
   87   92    1
   87   96    1
   88   90    1
   88   91    1
   88   92    1
   88   96    1
   89   95    1
   89   96    1
   90   93    1
   90   94    1
   91   93    1
   91   94    1
   93   95    1
   96  101    1
   96  102    1
   96  106    1
   97   99    1
   97  100    1
   98  103    1
   98  104    1
   98  105    1
   98  107    1
   98  108    1
   99  101    1
   99  102    1
   99  106    1
  100  109    1
  100  110    1
  101  103    1
  101  104    1
  101  105    1
  101  107    1
  101  108    1
  102  107    1
  102  108    1
  103  106    1
  104  106    1
  105  106    1
  106  111    1
  106  112    1
  106  117    1
  107  109    1
  107  110    1
  108  113    1
  108  114    1
  108  118    1
  108  119    1
  108  120    1
  109  111    1
  109  112    1
  109  117    1
  110  115    1
  110  116    1
  110  121    1
  110  122    1
  110  123    1
  111  113    1
  111  114    1
  111  118    1
  111  119    1
  111  120    1
  112  118    1
  112  119    1
  112  120    1
  113  115    1
  113  116    1
  113  117    1
  114  117    1
  117  124    1
  117  125    1
  117  126    1
  118  121    1
  118  122    1
  118  123    1
  119  121    1
  119  122    1
  119  123    1
  120  127    1
  120  128    1
  120  129    1
  121  124    1
  121  125    1
  121  126    1
  122  124    1
  122  125    1
  122  126    1
  124  127    1
  124  128    1
  124  129    1
  125  127    1
  125  128    1
  125  129    1
[ angles ]
;  ai   aj   ak  funct   angle     fc
    1    2    3    2    120.00   445.00
    1    2    4    2    120.00   390.00
    3    2    4    2    120.00   390.00
    2    4    5    2    120.00   560.00
    2    4    8    2    120.00   560.00
    5    4    8    2    120.00   560.00
    4    5    6    2    120.00   390.00
    4    5    7    2    120.00   390.00
    6    5    7    2    120.00   445.00
    4    8    9    2    116.00   465.00
    4    8   10    2    124.00   730.00
    9    8   10    2    116.00   465.00
    8   10   11    2    109.00  1680.51
    8   10   12    2    106.00  1733.55
    8   10   13    2    115.00   610.00
   11   10   12    2    107.00  2726.16
   11   10   13    2    109.50   285.00
   12   10   13    2    109.00  1680.51
   10   13   14    2    110.30   524.00
   10   13   15    2    106.00  1733.55
   10   13   16    2    111.00   530.00
   14   13   15    2    106.00  1733.55
   14   13   16    2    108.53   443.00
   15   13   16    2    111.00   530.00
   13   16   17    2    110.30   524.00
   13   16   18    2    108.53   443.00
   13   16   19    2    111.00   530.00
   17   16   18    2    107.57   484.00
   17   16   19    2    109.00  1680.51
   18   16   19    2    108.00   465.00
   16   19   20    2    108.53   443.00
   16   19   21    2    111.00   530.00
   16   19   24    2    109.50   520.00
   20   19   21    2    106.75   503.00
   20   19   24    2    110.00   285.00
   21   19   24    2    115.00   610.00
   19   21   22    2    109.50   425.00
   19   21   23    2    109.50   425.00
   22   21   23    2    109.50   285.00
   19   24   25    2    120.00   560.00
   19   24   26    2    120.00   560.00
   25   24   26    2    124.00   730.00
   24   26   27    2    120.00   390.00
   24   26   28    2    122.00   700.00
   27   26   28    2    115.00   460.00
   26   28   29    2    107.57   484.00
   26   28   30    2    111.00   530.00
   26   28   40    2    109.50   520.00
   29   28   30    2    108.53   443.00
   29   28   40    2    109.60   450.00
   30   28   40    2    109.50   520.00
   28   30   31    2    108.53   443.00
   28   30   32    2    111.00   530.00
   28   30   36    2    111.00   530.00
   31   30   32    2    108.53   443.00
   31   30   36    2    109.00  1680.51
   32   30   36    2    109.50   520.00
   30   32   33    2    111.00   530.00
   30   32   34    2    111.00   530.00
   30   32   35    2    111.00   530.00
   33   32   34    2    109.00  1680.51
   33   32   35    2    109.00  1680.51
   34   32   35    2    109.00  1680.51
   30   36   37    2    110.00   285.00
   30   36   38    2    110.00   285.00
   30   36   39    2    110.00   285.00
   37   36   38    2    108.00   465.00
   37   36   39    2    108.00   465.00
   38   36   39    2    108.00   465.00
   28   40   41    2    120.00   560.00
   28   40   42    2    120.00   560.00
   41   40   42    2    124.00   730.00
   40   42   43    2    120.00   390.00
   40   42   44    2    122.00   700.00
   43   42   44    2    116.00   465.00
   42   44   45    2    107.60   507.00
   42   44   46    2    115.00   610.00
   42   44   59    2    111.00   530.00
   45   44   46    2    108.00   465.00
   45   44   59    2    108.53   443.00
   46   44   59    2    109.50   520.00
   44   46   47    2    110.00   285.00
   44   46   48    2    108.00   465.00
   44   46   49    2    111.00   530.00
   47   46   48    2    107.57   484.00
   47   46   49    2    109.00  1680.51
   48   46   49    2    109.00  1680.51
   46   49   50    2    108.53   443.00
   46   49   51    2    109.50   520.00
   46   49   55    2    111.00   530.00
   50   49   51    2    108.53   443.00
   50   49   55    2    108.00   465.00
   51   49   55    2    111.00   530.00
   49   51   52    2    110.00   285.00
   49   51   53    2    110.00   285.00
   49   51   54    2    110.00   285.00
   52   51   53    2    108.53   443.00
   52   51   54    2    108.53   443.00
   53   51   54    2    108.53   443.00
   49   55   56    2    110.30   524.00
   49   55   57    2    110.30   524.00
   49   55   58    2    110.30   524.00
   56   55   57    2    109.00  1680.51
   56   55   58    2    109.00  1680.51
   57   55   58    2    109.00  1680.51
   44   59   60    2    109.00  1680.51
   44   59   61    2    106.75   503.00
   44   59   62    2    111.00   530.00
   60   59   61    2    108.00   465.00
   60   59   62    2    108.00   465.00
   61   59   62    2    112.00  4899.70
   59   62   63    2    109.50   425.00
   59   62   64    2    116.00   620.00
   63   62   64    2    109.50   425.00
   62   64   65    2    107.00  2726.16
   62   64   66    2    111.00   530.00
   62   64   80    2    115.00   610.00
   65   64   66    2    108.53   443.00
   65   64   80    2    109.00  1680.51
   66   64   80    2    109.50   520.00
   64   66   67    2    109.00  1680.51
   64   66   68    2    109.00  1680.51
   64   66   69    2    111.00   530.00
   67   66   68    2    107.57   484.00
   67   66   69    2    110.30   524.00
   68   66   69    2    108.53   443.00
   66   69   70    2    120.00   560.00
   66   69   78    2    120.00   560.00
   70   69   78    2    120.00   560.00
   69   70   71    2    120.00   505.00
   69   70   72    2    120.00   560.00
   71   70   72    2    120.00   505.00
   70   72   73    2    120.00   505.00
   70   72   74    2    120.00   560.00
   73   72   74    2    120.00   505.00
   72   74   75    2    120.00   505.00
   72   74   76    2    120.00   560.00
   75   74   76    2    120.00   505.00
   74   76   77    2    120.00   505.00
   74   76   78    2    120.00   560.00
   77   76   78    2    120.00   505.00
   69   78   76    2    120.00   560.00
   69   78   79    2    120.00   505.00
   76   78   79    2    120.00   505.00
   64   80   81    2    121.00   685.00
   64   80   82    2    115.00   610.00
   81   80   82    2    124.00   730.00
   80   82   83    2    120.00   390.00
   80   82   84    2    122.00   700.00
   83   82   84    2    116.00   465.00
   82   84   85    2    107.60   507.00
   82   84   86    2    115.00   610.00
   82   84   96    2    109.50   520.00
   85   84   86    2    108.53   443.00
   85   84   96    2    111.30   632.00
   86   84   96    2    109.50   520.00
   84   86   87    2    110.00   285.00
   84   86   88    2    110.00   285.00
   84   86   89    2    111.00   530.00
   87   86   88    2    107.00  2726.16
   87   86   89    2    110.00   285.00
   88   86   89    2    109.00  1680.51
   86   89   90    2    111.00   530.00
   86   89   91    2    111.00   530.00
   86   89   92    2    111.00   530.00
   90   89   91    2    107.57   484.00
   90   89   92    2    108.00   465.00
   91   89   92    2    108.53   443.00
   89   92   93    2    126.00   640.00
   89   92   94    2    115.00   610.00
   93   92   94    2    117.00   635.00
   92   94   95    2    109.50   450.00
   84   96   97    2    120.00   560.00
   84   96   98    2    115.00   610.00
   97   96   98    2    124.00   730.00
   96   98   99    2    120.00   390.00
   96   98  100    2    122.00   700.00
   99   98  100    2    116.00   465.00
   98  100  101    2    107.57   484.00
   98  100  102    2    115.00   610.00
   98  100  106    2    111.00   530.00
  101  100  102    2    108.53   443.00
  101  100  106    2    109.60   450.00
  102  100  106    2    109.50   520.00
  100  102  103    2    111.00   530.00
  100  102  104    2    111.00   530.00
  100  102  105    2    111.00   530.00
  103  102  104    2    108.53   443.00
  103  102  105    2    108.53   443.00
  104  102  105    2    108.53   443.00
  100  106  107    2    121.00   685.00
  100  106  108    2    115.00   610.00
  107  106  108    2    124.00   730.00
  106  108  109    2    120.00   390.00
  106  108  110    2    122.00   700.00
  109  108  110    2    116.00   465.00
  108  110  111    2    108.00   465.00
  108  110  112    2    111.00   530.00
  108  110  117    2    111.00   530.00
  111  110  112    2    106.00  1733.55
  111  110  117    2    109.00  1680.51
  112  110  117    2    109.50   520.00
  110  112  113    2    120.00   560.00
  110  112  114    2    120.00   560.00
  113  112  114    2    124.00   730.00
  112  114  115    2    120.00   390.00
  112  114  116    2    120.00   390.00
  115  114  116    2    120.00   445.00
  110  117  118    2    110.00   285.00
  110  117  119    2    108.53   443.00
  110  117  120    2    111.00   530.00
  118  117  119    2    107.00  2726.16
  118  117  120    2    110.30   524.00
  119  117  120    2    109.00  1680.51
  117  120  121    2    109.00  1680.51
  117  120  122    2    110.30   524.00
  117  120  123    2    111.00   530.00
  121  120  122    2    107.00  2726.16
  121  120  123    2    109.00  1680.51
  122  120  123    2    109.00  1680.51
  120  123  124    2    109.60   450.00
  120  123  125    2    109.00  1680.51
  120  123  126    2    111.00   530.00
  124  123  125    2    107.57   484.00
  124  123  126    2    109.60   450.00
  125  123  126    2    109.50   285.00
  123  126  127    2    110.30   524.00
  123  126  128    2    110.30   524.00
  123  126  129    2    110.30   524.00
  127  126  128    2    108.53   443.00
  127  126  129    2    108.53   443.00
  128  126  129    2    108.53   443.00
[ dihedrals ]
; GROMOS improper dihedrals
;  ai   aj   ak   al  funct   angle     fc
   24   19   25   26    2      0.00   167.36
    4    2    5    8    2      0.00   167.36
    5    4    6    7    2      0.00   167.36
    2    1    3    4    2      0.00   167.36
   40   28   41   42    2      0.00   167.36
   42   40   43   44    2      0.00   167.36
   80   64   81   82    2      0.00   167.36
   69   66   70   78    2      0.00   167.36
   70   69   71   72    2      0.00   167.36
   78   69   76   79    2      0.00   167.36
   72   70   73   74    2      0.00   167.36
   76   74   77   78    2      0.00   167.36
   74   72   75   76    2      0.00   167.36
   82   80   83   84    2      0.00   167.36
   96   84   97   98    2      0.00   167.36
   92   89   93   94    2      0.00   167.36
   98   96   99  100    2      0.00   167.36
  106  100  107  108    2      0.00   167.36
  108  106  109  110    2      0.00   167.36
  112  110  113  114    2      0.00   167.36
  114  112  115  116    2      0.00   167.36
[ dihedrals ]
;  ai   aj   ak   al  funct    ph0      cp     mult
    3    2    4    8    1    180.00    33.50    2
    4    8   10   13    1    180.00     1.00    6
    5    4    8   10    1    180.00    33.50    2
    8    4    5    6    1    180.00    33.50    2
    8   10   13   16    1      0.00     5.92    3
   10   13   16   19    1      0.00     5.92    3
   13   16   19   21    1      0.00     5.92    3
   19   24   26   28    1    180.00    33.50    2
   21   19   24   25    1    180.00     1.00    6
   24   19   21   22    1    180.00     1.00    6
   24   26   28   40    1      0.00     3.77    6
   26   28   30   32    1      0.00     5.92    3
   26   28   40   41    1      0.00     1.00    6
   28   30   32   33    1      0.00     5.92    3
   28   30   36   37    1      0.00     5.92    3
   28   40   42   44    1    180.00    33.50    2
   40   42   44   59    1      0.00     3.77    6
   42   44   46   49    1      0.00     5.92    3
   42   44   59   62    1      0.00     5.92    3
   44   46   49   51    1      0.00     5.92    3
   44   59   62   64    1    180.00     1.00    6
   46   49   51   52    1      0.00     5.92    3
   46   49   55   56    1      0.00     5.92    3
   59   62   64   80    1    180.00     1.00    6
   62   64   66   69    1      0.00     5.92    3
   62   64   80   81    1      0.00     1.00    6
   64   66   69   70    1    180.00     1.00    6
   64   80   82   84    1    180.00    33.50    2
   69   70   72   74    1    180.00    41.80    2
   70   69   78   76    1    180.00    41.80    2
   70   72   74   76    1    180.00    41.80    2
   72   74   76   78    1    180.00    41.80    2
   74   76   78   69    1    180.00    41.80    2
   78   69   70   72    1    180.00    41.80    2
   80   82   84   96    1      0.00     3.77    6
   82   84   86   89    1      0.00     5.92    3
   82   84   96   97    1    180.00     1.00    6
   84   86   89   92    1      0.00     5.92    3
   84   96   98  100    1    180.00    33.50    2
   86   89   92   93    1    180.00     1.00    6
   89   92   94   95    1    180.00    16.70    2
   96   98  100  106    1    180.00     1.00    6
   98  100  102  103    1      0.00     5.92    3
   98  100  106  107    1      0.00     1.00    6
  100  106  108  110    1    180.00    33.50    2
  106  108  110  112    1      0.00     3.77    6
  108  110  112  113    1    180.00     1.00    6
  108  110  117  120    1      0.00     5.92    3
  110  112  114  115    1    180.00    33.50    2
  110  117  120  123    1    180.00     1.00    3
  117  120  123  126    1      0.00     5.92    3
  120  123  126  127    1      0.00     5.92    3
[ exclusions ]
;  ai   aj  funct  ;  GROMOS 1-4 exclusions
   69   74
   70   76
   72   78