[ moleculetype ]
; Name   nrexcl
CT0     3
[ atoms ]
;  nr  type  resnr  resid  atom  cgnr  charge    mass
     1 HC            1 CT0   H41         1     0.134    1.0080
     2 CR1           1 CT0   C32         2    -0.124   12.0110
     3 CR1           1 CT0   C31         3    -0.129   12.0110
     4 HC            1 CT0   H40         4     0.135    1.0080
     5 CR1           1 CT0   C30         5    -0.069   12.0110
     6 C             1 CT0   C36         6    -0.179   12.0110
     7 HC            1 CT0   H46         7     0.089    1.0080
     8 HC            1 CT0   H47         8     0.089    1.0080
     9 HC            1 CT0   H48         9     0.089    1.0080
    10 CR1           1 CT0   C28        10     0.035   12.0110
    11 CR1           1 CT0   C34        11    -0.069   12.0110
    12 CR1           1 CT0   C33        12    -0.129   12.0110
    13 HC            1 CT0   H42        13     0.135    1.0080
    14 C             1 CT0   C35        14    -0.179   12.0110
    15 HC            1 CT0   H43        15     0.089    1.0080
    16 HC            1 CT0   H44        16     0.089    1.0080
    17 HC            1 CT0   H45        17     0.089    1.0080
    18 OE            1 CT0   O3         18    -0.232   15.9994
    19 C             1 CT0   C27        19    -0.047   12.0110
    20 HC            1 CT0   H36        20     0.104    1.0080
    21 HC            1 CT0   H37        21     0.112    1.0080
    22 C             1 CT0   C26        22     0.304   12.0110
    23 O             1 CT0   O5         23    -0.389   15.9994
    24 N             1 CT0   N4         24    -0.345   14.0067
    25 H             1 CT0   H09        25     0.245    1.0080
    26 C             1 CT0   C25        26     0.036   12.0110
    27 HC            1 CT0   H35        27     0.139    1.0080
    28 C             1 CT0   C29        28    -0.135   12.0110
    29 HC            1 CT0   H38        29     0.102    1.0080
    30 HC            1 CT0   H39        30     0.108    1.0080
    31 CR1           1 CT0   C4         31    -0.066   12.0110
    32 CR1           1 CT0   C5         32    -0.126   12.0110
    33 HC            1 CT0   H11        33     0.136    1.0080
    34 CR1           1 CT0   C6         34    -0.131   12.0110
    35 HC            1 CT0   H12        35     0.129    1.0080
    36 CR1           1 CT0   C7         36    -0.135   12.0110
    37 HC            1 CT0   H13        37     0.128    1.0080
    38 CR1           1 CT0   C8         38    -0.131   12.0110
    39 HC            1 CT0   H14        39     0.129    1.0080
    40 CR1           1 CT0   C9         40    -0.126   12.0110
    41 HC            1 CT0   H15        41     0.136    1.0080
    42 C             1 CT0   C24        42     0.010   12.0110
    43 HC            1 CT0   H34        43     0.089    1.0080
    44 O             1 CT0   O4         44    -0.335   15.9994
    45 H             1 CT0   H10        45     0.201    1.0080
    46 C             1 CT0   C23        46    -0.205   12.0110
    47 HC            1 CT0   H32        47     0.084    1.0080
    48 HC            1 CT0   H33        48     0.107    1.0080
    49 C             1 CT0   C12        49     0.030   12.0110
    50 HC            1 CT0   H17        50     0.138    1.0080
    51 C             1 CT0   C22        51    -0.139   12.0110
    52 HC            1 CT0   H30        52     0.100    1.0080
    53 HC            1 CT0   H31        53     0.112    1.0080
    54 CR1           1 CT0   C20        54    -0.076   12.0110
    55 CR1           1 CT0   C19        55    -0.135   12.0110
    56 HC            1 CT0   H28        56     0.134    1.0080
    57 CR1           1 CT0   C18        57    -0.129   12.0110
    58 HC            1 CT0   H27        58     0.132    1.0080
    59 CR1           1 CT0   C17        59    -0.129   12.0110
    60 HC            1 CT0   H26        60     0.134    1.0080
    61 CR1           1 CT0   C16        61    -0.129   12.0110
    62 HC            1 CT0   H25        62     0.132    1.0080
    63 CR1           1 CT0   C21        63    -0.135   12.0110
    64 HC            1 CT0   H29        64     0.134    1.0080
    65 N             1 CT0   N3         65    -0.373   14.0067
    66 H             1 CT0   H08        66     0.231    1.0080
    67 C             1 CT0   C11        67     0.307   12.0110
    68 O             1 CT0   O2         68    -0.387   15.9994
    69 C             1 CT0   C10        69    -0.008   12.0110
    70 HC            1 CT0   H16        70     0.122    1.0080
    71 C             1 CT0   C13        71    -0.124   12.0110
    72 HC            1 CT0   H18        72     0.114    1.0080
    73 C             1 CT0   C14        73    -0.213   12.0110
    74 HC            1 CT0   H19        74     0.079    1.0080
    75 HC            1 CT0   H20        75     0.079    1.0080
    76 HC            1 CT0   H21        76     0.079    1.0080
    77 C             1 CT0   C15        77    -0.215   12.0110
    78 HC            1 CT0   H22        78     0.077    1.0080
    79 HC            1 CT0   H23        79     0.077    1.0080
    80 HC            1 CT0   H24        80     0.077    1.0080
    81 N             1 CT0   N1         81    -0.353   14.0067
    82 C             1 CT0   C2         82    -0.053   12.0110
    83 HC            1 CT0   H04        83     0.061    1.0080
    84 HC            1 CT0   H05        84     0.110    1.0080
    85 C             1 CT0   C37        85    -0.198   12.0110
    86 HC            1 CT0   H49        86     0.091    1.0080
    87 HC            1 CT0   H50        87     0.097    1.0080
    88 C             1 CT0   C1         88    -0.071   12.0110
    89 HC            1 CT0   H01        89     0.094    1.0080
    90 HC            1 CT0   H02        90     0.094    1.0080
    91 N             1 CT0   N2         91    -0.319   14.0067
    92 H             1 CT0   H06        92     0.162    1.0080
    93 C             1 CT0   C3         93     0.193   12.0110
    94 HC            1 CT0   H07        94     0.129    1.0080
    95 O             1 CT0   O1         95    -0.328   15.9994
    96 H             1 CT0   H03        96     0.204    1.0080
; total charge of the molecule:   0.000
[ bonds ]
;  ai   aj  funct   c0         c1
    1    2    2   0.1090   1.2300e+07
    2    3    2   0.1390   8.6600e+06
    2   12    2   0.1390   8.6600e+06
    3    4    2   0.1100   1.2100e+07
    3    5    2   0.1390   8.6600e+06
    5    6    2   0.1480   5.7300e+06
    5   10    2   0.1410   6.5389e+06
    6    7    2   0.1120   3.7000e+07
    6    8    2   0.1120   3.7000e+07
    6    9    2   0.1120   3.7000e+07
   10   11    2   0.1410   6.5389e+06
   10   18    2   0.1390   8.6600e+06
   11   12    2   0.1390   8.6600e+06
   11   14    2   0.1480   5.7300e+06
   12   13    2   0.1100   1.2100e+07
   14   15    2   0.1120   3.7000e+07
   14   16    2   0.1120   3.7000e+07
   14   17    2   0.1120   3.7000e+07
   18   19    2   0.1430   8.1800e+06
   19   20    2   0.1120   3.7000e+07
   19   21    2   0.1120   3.7000e+07
   19   22    2   0.1530   7.1500e+06
   22   23    2   0.1250   1.3400e+07
   22   24    2   0.1380   1.1000e+07
   24   25    2   0.1000   1.8700e+07
   24   26    2   0.1440   3.3758e+05
   26   27    2   0.1130   7.0483e+06
   26   28    2   0.1540   4.2166e+06
   26   42    2   0.1560   3.0819e+06
   28   29    2   0.1120   3.7000e+07
   28   30    2   0.1130   7.0483e+06
   28   31    2   0.1490   1.4189e+07
   31   32    2   0.1390   8.6600e+06
   31   40    2   0.1390   8.6600e+06
   32   33    2   0.1100   1.2100e+07
   32   34    2   0.1390   8.6600e+06
   34   35    2   0.1090   1.2300e+07
   34   36    2   0.1390   8.6600e+06
   36   37    2   0.1090   1.2300e+07
   36   38    2   0.1390   8.6600e+06
   38   39    2   0.1090   1.2300e+07
   38   40    2   0.1390   8.6600e+06
   40   41    2   0.1100   1.2100e+07
   42   43    2   0.1130   7.0483e+06
   42   44    2   0.1430   8.1800e+06
   42   46    2   0.1520   5.4300e+06
   44   45    2   0.0971   7.9547e+06
   46   47    2   0.1120   3.7000e+07
   46   48    2   0.1120   3.7000e+07
   46   49    2   0.1530   7.1500e+06
   49   50    2   0.1140   3.8473e+07
   49   51    2   0.1540   4.2166e+06
   49   65    2   0.1450   5.2319e+06
   51   52    2   0.1120   3.7000e+07
   51   53    2   0.1120   3.7000e+07
   51   54    2   0.1490   1.4189e+07
   54   55    2   0.1400   8.5400e+06
   54   63    2   0.1400   8.5400e+06
   55   56    2   0.1100   1.2100e+07
   55   57    2   0.1390   8.6600e+06
   57   58    2   0.1100   1.2100e+07
   57   59    2   0.1390   8.6600e+06
   59   60    2   0.1090   1.2300e+07
   59   61    2   0.1390   8.6600e+06
   61   62    2   0.1100   1.2100e+07
   61   63    2   0.1390   8.6600e+06
   63   64    2   0.1100   1.2100e+07
   65   66    2   0.1000   1.8700e+07
   65   67    2   0.1380   1.1000e+07
   67   68    2   0.1250   1.3400e+07
   67   69    2   0.1560   3.0819e+06
   69   70    2   0.1130   7.0483e+06
   69   71    2   0.1540   4.2166e+06
   69   81    2   0.1450   5.2319e+06
   71   72    2   0.1130   7.0483e+06
   71   73    2   0.1520   5.4300e+06
   71   77    2   0.1520   5.4300e+06
   73   74    2   0.1120   3.7000e+07
   73   75    2   0.1120   3.7000e+07
   73   76    2   0.1120   3.7000e+07
   77   78    2   0.1120   3.7000e+07
   77   79    2   0.1120   3.7000e+07
   77   80    2   0.1120   3.7000e+07
   81   82    2   0.1450   5.2319e+06
   81   93    2   0.1480   5.7300e+06
   82   83    2   0.1130   7.0483e+06
   82   84    2   0.1130   7.0483e+06
   82   85    2   0.1530   7.1500e+06
   85   86    2   0.1120   3.7000e+07
   85   87    2   0.1120   3.7000e+07
   85   88    2   0.1530   7.1500e+06
   88   89    2   0.1130   7.0483e+06
   88   90    2   0.1130   7.0483e+06
   88   91    2   0.1440   3.3758e+05
   91   92    2   0.1000   1.8700e+07
   91   93    2   0.1470   8.7100e+06
   93   94    2   0.1140   3.8473e+07
   93   95    2   0.1430   8.1800e+06
   95   96    2   0.0971   7.9547e+06
[ pairs ]
;  ai   aj  funct  ;  all 1-4 pairs but the ones excluded in GROMOS itp
    1    4    1
    1    5    1
    1   11    1
    1   13    1
    2    6    1
    2   14    1
    3    7    1
    3    8    1
    3    9    1
    3   13    1
    3   18    1
    4    6    1
    4   10    1
    4   12    1
    5   14    1
    5   19    1
    6   11    1
    6   18    1
    7   10    1
    8   10    1
    9   10    1
   10   13    1
   10   15    1
   10   16    1
   10   17    1
   10   20    1
   10   21    1
   10   22    1
   11   19    1
   12   15    1
   12   16    1
   12   17    1
   12   18    1
   13   14    1
   14   18    1
   18   23    1
   18   24    1
   19   25    1
   19   26    1
   20   23    1
   20   24    1
   21   23    1
   21   24    1
   22   27    1
   22   28    1
   22   42    1
   23   25    1
   23   26    1
   24   29    1
   24   30    1
   24   31    1
   24   43    1
   24   44    1
   24   46    1
   25   27    1
   25   28    1
   25   42    1
   26   32    1
   26   40    1
   26   45    1
   26   47    1
   26   48    1
   26   49    1
   27   29    1
   27   30    1
   27   31    1
   27   43    1
   27   44    1
   27   46    1
   28   33    1
   28   34    1
   28   38    1
   28   41    1
   28   43    1
   28   44    1
   28   46    1
   29   32    1
   29   40    1
   29   42    1
   30   32    1
   30   40    1
   30   42    1
   31   35    1
   31   39    1
   31   42    1
   32   37    1
   32   41    1
   33   35    1
   33   36    1
   33   40    1
   34   39    1
   35   37    1
   35   38    1
   36   41    1
   37   39    1
   37   40    1
   39   41    1
   42   50    1
   42   51    1
   42   65    1
   43   45    1
   43   47    1
   43   48    1
   43   49    1
   44   47    1
   44   48    1
   44   49    1
   45   46    1
   46   52    1
   46   53    1
   46   54    1
   46   66    1
   46   67    1
   47   50    1
   47   51    1
   47   65    1
   48   50    1
   48   51    1
   48   65    1
   49   55    1
   49   63    1
   49   68    1
   49   69    1
   50   52    1
   50   53    1
   50   54    1
   50   66    1
   50   67    1
   51   56    1
   51   57    1
   51   61    1
   51   64    1
   51   66    1
   51   67    1
   52   55    1
   52   63    1
   52   65    1
   53   55    1
   53   63    1
   53   65    1
   54   58    1
   54   62    1
   54   65    1
   55   60    1
   55   64    1
   56   58    1
   56   59    1
   56   63    1
   57   62    1
   58   60    1
   58   61    1
   59   64    1
   60   62    1
   60   63    1
   62   64    1
   65   70    1
   65   71    1
   65   81    1
   66   68    1
   66   69    1
   67   72    1
   67   73    1
   67   77    1
   67   82    1
   67   93    1
   68   70    1
   68   71    1
   68   81    1
   69   74    1
   69   75    1
   69   76    1
   69   78    1
   69   79    1
   69   80    1
   69   83    1
   69   84    1
   69   85    1
   69   91    1
   69   94    1
   69   95    1
   70   72    1
   70   73    1
   70   77    1
   70   82    1
   70   93    1
   71   82    1
   71   93    1
   72   74    1
   72   75    1
   72   76    1
   72   78    1
   72   79    1
   72   80    1
   72   81    1
   73   78    1
   73   79    1
   73   80    1
   73   81    1
   74   77    1
   75   77    1
   76   77    1
   77   81    1
   81   86    1
   81   87    1
   81   88    1
   81   92    1
   81   96    1
   82   89    1
   82   90    1
   82   91    1
   82   94    1
   82   95    1
   83   86    1
   83   87    1
   83   88    1
   83   93    1
   84   86    1
   84   87    1
   84   88    1
   84   93    1
   85   92    1
   85   93    1
   86   89    1
   86   90    1
   86   91    1
   87   89    1
   87   90    1
   87   91    1
   88   94    1
   88   95    1
   89   92    1
   89   93    1
   90   92    1
   90   93    1
   91   96    1
   92   94    1
   92   95    1
   94   96    1
[ angles ]
;  ai   aj   ak  funct   angle     fc
    1    2    3    2    120.00   505.00
    1    2   12    2    120.00   505.00
    3    2   12    2    120.00   560.00
    2    3    4    2    120.00   505.00
    2    3    5    2    120.00   560.00
    4    3    5    2    120.00   505.00
    3    5    6    2    120.00   560.00
    3    5   10    2    120.00   560.00
    6    5   10    2    120.00   560.00
    5    6    7    2    111.00   530.00
    5    6    8    2    111.00   530.00
    5    6    9    2    111.00   530.00
    7    6    8    2    108.00   465.00
    7    6    9    2    108.00   465.00
    8    6    9    2    108.00   465.00
    5   10   11    2    120.00   560.00
    5   10   18    2    120.00   560.00
   11   10   18    2    120.00   560.00
   10   11   12    2    120.00   560.00
   10   11   14    2    120.00   560.00
   12   11   14    2    120.00   560.00
    2   12   11    2    120.00   560.00
    2   12   13    2    120.00   505.00
   11   12   13    2    120.00   505.00
   11   14   15    2    111.00   530.00
   11   14   16    2    111.00   530.00
   11   14   17    2    111.00   530.00
   15   14   16    2    108.00   465.00
   15   14   17    2    108.00   465.00
   16   14   17    2    108.00   465.00
   10   18   19    2    109.50   450.00
   18   19   20    2    110.00   285.00
   18   19   21    2    109.60   450.00
   18   19   22    2    109.50   520.00
   20   19   21    2    110.30   524.00
   20   19   22    2    109.00  1680.51
   21   19   22    2    109.00  1680.51
   19   22   23    2    120.00   560.00
   19   22   24    2    120.00   560.00
   23   22   24    2    124.00   730.00
   22   24   25    2    120.00   390.00
   22   24   26    2    122.00   700.00
   25   24   26    2    116.00   465.00
   24   26   27    2    108.00   465.00
   24   26   28    2    111.00   530.00
   24   26   42    2    115.00   610.00
   27   26   28    2    108.53   443.00
   27   26   42    2    106.75   503.00
   28   26   42    2    109.50   520.00
   26   28   29    2    109.00  1680.51
   26   28   30    2    107.00  2726.16
   26   28   31    2    111.00   530.00
   29   28   30    2    107.60   507.00
   29   28   31    2    110.30   524.00
   30   28   31    2    109.00  1680.51
   28   31   32    2    120.00   560.00
   28   31   40    2    120.00   560.00
   32   31   40    2    120.00   560.00
   31   32   33    2    120.00   505.00
   31   32   34    2    120.00   560.00
   33   32   34    2    120.00   505.00
   32   34   35    2    120.00   505.00
   32   34   36    2    120.00   560.00
   35   34   36    2    120.00   505.00
   34   36   37    2    120.00   505.00
   34   36   38    2    120.00   560.00
   37   36   38    2    120.00   505.00
   36   38   39    2    120.00   505.00
   36   38   40    2    120.00   560.00
   39   38   40    2    120.00   505.00
   31   40   38    2    120.00   560.00
   31   40   41    2    120.00   505.00
   38   40   41    2    120.00   505.00
   26   42   43    2    107.00  2726.16
   26   42   44    2    109.50   520.00
   26   42   46    2    111.00   530.00
   43   42   44    2    108.53   443.00
   43   42   46    2    110.00   285.00
   44   42   46    2    111.00   530.00
   42   44   45    2    109.50   450.00
   42   46   47    2    109.50   285.00
   42   46   48    2    109.60   450.00
   42   46   49    2    111.00   530.00
   47   46   48    2    107.00  2726.16
   47   46   49    2    109.60   450.00
   48   46   49    2    108.00   465.00
   46   49   50    2    107.57   484.00
   46   49   51    2    109.50   520.00
   46   49   65    2    115.00   610.00
   50   49   51    2    106.75   503.00
   50   49   65    2    108.00   465.00
   51   49   65    2    111.00   530.00
   49   51   52    2    108.53   443.00
   49   51   53    2    107.60   507.00
   49   51   54    2    111.00   530.00
   52   51   53    2    107.00  2726.16
   52   51   54    2    109.50   285.00
   53   51   54    2    110.00   285.00
   51   54   55    2    120.00   560.00
   51   54   63    2    120.00   560.00
   55   54   63    2    120.00   560.00
   54   55   56    2    120.00   505.00
   54   55   57    2    120.00   560.00
   56   55   57    2    120.00   505.00
   55   57   58    2    120.00   505.00
   55   57   59    2    120.00   560.00
   58   57   59    2    120.00   505.00
   57   59   60    2    120.00   505.00
   57   59   61    2    120.00   560.00
   60   59   61    2    120.00   505.00
   59   61   62    2    120.00   505.00
   59   61   63    2    120.00   560.00
   62   61   63    2    120.00   505.00
   54   63   61    2    120.00   560.00
   54   63   64    2    120.00   505.00
   61   63   64    2    120.00   505.00
   49   65   66    2    116.00   465.00
   49   65   67    2    124.00   730.00
   66   65   67    2    120.00   390.00
   65   67   68    2    124.00   730.00
   65   67   69    2    115.00   610.00
   68   67   69    2    121.00   685.00
   67   69   70    2    108.53   443.00
   67   69   71    2    109.50   520.00
   67   69   81    2    108.00   465.00
   70   69   71    2    106.75   503.00
   70   69   81    2    107.57   484.00
   71   69   81    2    120.00   560.00
   69   71   72    2    108.53   443.00
   69   71   73    2    109.50   520.00
   69   71   77    2    111.00   530.00
   72   71   73    2    108.53   443.00
   72   71   77    2    109.50   285.00
   73   71   77    2    109.50   520.00
   71   73   74    2    110.00   285.00
   71   73   75    2    110.00   285.00
   71   73   76    2    110.00   285.00
   74   73   75    2    109.00  1680.51
   74   73   76    2    109.00  1680.51
   75   73   76    2    109.00  1680.51
   71   77   78    2    111.40   532.00
   71   77   79    2    111.40   532.00
   71   77   80    2    111.40   532.00
   78   77   79    2    108.00   465.00
   78   77   80    2    108.00   465.00
   79   77   80    2    108.00   465.00
   69   81   82    2    116.00   620.00
   69   81   93    2    116.00   620.00
   82   81   93    2    116.00   620.00
   81   82   83    2    111.40   532.00
   81   82   84    2    107.00  2726.16
   81   82   85    2    115.00   610.00
   83   82   84    2    107.00  2726.16
   83   82   85    2    108.00   465.00
   84   82   85    2    109.60   450.00
   82   85   86    2    110.30   524.00
   82   85   87    2    109.00  1680.51
   82   85   88    2    109.50   520.00
   86   85   87    2    107.60   507.00
   86   85   88    2    110.30   524.00
   87   85   88    2    110.00   285.00
   85   88   89    2    109.60   450.00
   85   88   90    2    108.53   443.00
   85   88   91    2    115.00   610.00
   89   88   90    2    107.60   507.00
   89   88   91    2    108.53   443.00
   90   88   91    2    107.00  2726.16
   88   91   92    2    115.00   460.00
   88   91   93    2    116.00   620.00
   92   91   93    2    109.50   425.00
   81   93   91    2    120.00   560.00
   81   93   94    2    111.40   532.00
   81   93   95    2    109.00  1680.51
   91   93   94    2    106.75   503.00
   91   93   95    2    110.00   285.00
   94   93   95    2    103.00   420.00
   93   95   96    2    109.50   450.00
[ dihedrals ]
; GROMOS improper dihedrals
;  ai   aj   ak   al  funct   angle     fc
   65   49   66   67    2      0.00   167.36
   31   28   32   40    2      0.00   167.36
   24   22   25   26    2      0.00   167.36
   32   31   33   34    2      0.00   167.36
   34   32   35   36    2      0.00   167.36
   36   34   37   38    2      0.00   167.36
   38   36   39   40    2      0.00   167.36
   40   31   38   41    2      0.00   167.36
   67   65   68   69    2      0.00   167.36
   61   59   62   63    2      0.00   167.36
   59   57   60   61    2      0.00   167.36
   57   55   58   59    2      0.00   167.36
   55   54   56   57    2      0.00   167.36
   54   51   55   63    2      0.00   167.36
   63   54   61   64    2      0.00   167.36
   22   19   23   24    2      0.00   167.36
   10    5   11   18    2      0.00   167.36
    5    3    6   10    2      0.00   167.36
    3    2    4    5    2      0.00   167.36
    2    1    3   12    2      0.00   167.36
   12    2   11   13    2      0.00   167.36
   11   10   12   14    2      0.00   167.36
[ dihedrals ]
;  ai   aj   ak   al  funct    ph0      cp     mult
    2    3    5   10    1    180.00    41.80    2
    3    2   12   11    1    180.00    41.80    2
    3    5   10   11    1    180.00    41.80    2
    5   10   11   12    1    180.00    41.80    2
    5   10   18   19    1      0.00     0.42    2
   10    5    6    7    1      0.00     1.00    6
   10   11   12    2    1    180.00    41.80    2
   10   11   14   15    1      0.00     1.00    6
   10   18   19   22    1      0.00     1.26    3
   12    2    3    5    1    180.00    41.80    2
   18   19   22   24    1      0.00     1.00    6
   22   24   26   42    1      0.00     3.77    6
   23   22   24   26    1    180.00    33.50    2
   24   26   28   31    1      0.00     5.92    3
   24   26   42   44    1      0.00     5.92    3
   26   28   31   32    1    180.00     1.00    6
   31   32   34   36    1    180.00    41.80    2
   32   31   40   38    1    180.00    41.80    2
   32   34   36   38    1    180.00    41.80    2
   34   36   38   40    1    180.00    41.80    2
   36   38   40   31    1    180.00    41.80    2
   40   31   32   34    1    180.00    41.80    2
   42   46   49   65    1      0.00     5.92    3
   44   42   46   49    1      0.00     5.92    3
   46   42   44   45    1      0.00     1.26    3
   49   51   54   55    1      0.00     1.00    6
   49   65   67   68    1    180.00    33.50    2
   51   49   65   67    1      0.00     3.77    6
   54   55   57   59    1    180.00    41.80    2
   55   54   63   61    1    180.00    41.80    2
   55   57   59   61    1    180.00    41.80    2
   57   59   61   63    1    180.00    41.80    2
   59   61   63   54    1    180.00    41.80    2
   63   54   55   57    1    180.00    41.80    2
   65   49   51   54    1      0.00     5.92    3
   67   69   81   82    1      0.00     3.77    6
   68   67   69   81    1      0.00     1.00    6
   69   71   73   74    1      0.00     5.92    3
   69   71   77   78    1      0.00     5.92    3
   81   69   71   73    1      0.00     5.92    3
   81   82   85   88    1      0.00     5.92    3
   81   93   95   96    1      0.00     1.26    3
   82   81   93   95    1    180.00     1.00    6
   82   85   88   91    1      0.00     5.92    3
   85   88   91   93    1    180.00     1.00    6
   88   91   93   81    1      0.00     3.77    6
   93   81   82   85    1    180.00     1.00    6
[ exclusions ]
;  ai   aj  funct  ;  GROMOS 1-4 exclusions
    2   10
    3   11
    5   12
   31   36
   32   38
   34   40
   54   59
   55   61
   57   63