[ moleculetype ]
; Name   nrexcl
ORKY     3
[ atoms ]
;  nr  type  resnr  resid  atom  cgnr  charge    mass
    1    OM    1    ORKY    O12    1   -0.567  15.9994
    2  CPos    1    ORKY    C34    2    0.332  12.0110
    3    OM    1    ORKY    O11    3   -0.567  15.9994
    4     C    1    ORKY    C33    4   -0.070  12.0110
    5    HC    1    ORKY    H53    5    0.113   1.0080
    6  NTer    1    ORKY    N10    6   -0.278  14.0067
    7     C    1    ORKY    C37    7   -0.036  12.0110
    8    HC    1    ORKY    H54    8    0.081   1.0080
    9    HC    1    ORKY    H55    9    0.063   1.0080
   10     C    1    ORKY    C36   10   -0.159  12.0110
   11    HC    1    ORKY    H51   11    0.062   1.0080
   12    HC    1    ORKY    H52   12    0.082   1.0080
   13     C    1    ORKY    C35   13   -0.150  12.0110
   14    HC    1    ORKY    H49   14    0.061   1.0080
   15    HC    1    ORKY    H50   15    0.115   1.0080
   16  CPos    1    ORKY    C31   16    0.314  12.0110
   17 OEOpt    1    ORKY    O10   17   -0.377  15.9994
   18     C    1    ORKY    C30   18   -0.008  12.0110
   19    HC    1    ORKY    H44   19    0.119   1.0080
   20     C    1    ORKY    C32   20   -0.240  12.0110
   21    HC    1    ORKY    H45   21    0.104   1.0080
   22    HC    1    ORKY    H46   22    0.104   1.0080
   23    HC    1    ORKY    H47   23    0.104   1.0080
   24     N    1    ORKY     N9   24   -0.334  14.0067
   25  HS14    1    ORKY    H48   25    0.266   1.0080
   26  CPos    1    ORKY    C28   26    0.286  12.0110
   27 OEOpt    1    ORKY     O8   27   -0.447  15.9994
   28     C    1    ORKY    C27   28   -0.050  12.0110
   29    HC    1    ORKY    H39   29    0.144   1.0080
   30  CPos    1    ORKY    C29   30   -0.030  12.0110
   31    HC    1    ORKY    H40   31    0.124   1.0080
   32    HC    1    ORKY    H41   32    0.082   1.0080
   33  OAlc    1    ORKY     O9   33   -0.315  15.9994
   34  HS14    1    ORKY    H42   34    0.202   1.0080
   35     N    1    ORKY     N8   35   -0.337  14.0067
   36  HS14    1    ORKY    H43   36    0.232   1.0080
   37  CPos    1    ORKY    C23   37    0.280  12.0110
   38 OEOpt    1    ORKY     O6   38   -0.372  15.9994
   39     C    1    ORKY    C22   39    0.011  12.0110
   40    HC    1    ORKY    H31   40    0.141   1.0080
   41     C    1    ORKY    C24   41   -0.167  12.0110
   42    HC    1    ORKY    H32   42    0.106   1.0080
   43    HC    1    ORKY    H33   43    0.117   1.0080
   44     C    1    ORKY    C25   44   -0.189  12.0110
   45    HC    1    ORKY    H34   45    0.112   1.0080
   46    HC    1    ORKY    H35   46    0.116   1.0080
   47  CPos    1    ORKY    C26   47    0.303  12.0110
   48 OEOpt    1    ORKY     O7   48   -0.405  15.9994
   49  NPri    1    ORKY     N7   49   -0.424  14.0067
   50  HS14    1    ORKY    H36   50    0.239   1.0080
   51  HS14    1    ORKY    H37   51    0.239   1.0080
   52     N    1    ORKY     N6   52   -0.363  14.0067
   53  HS14    1    ORKY    H38   53    0.247   1.0080
   54  CPos    1    ORKY    C17   54    0.290  12.0110
   55 OEOpt    1    ORKY     O5   55   -0.375  15.9994
   56     C    1    ORKY    C16   56    0.017  12.0110
   57    HC    1    ORKY    H20   57    0.137   1.0080
   58     C    1    ORKY    C18   58   -0.171  12.0110
   59    HC    1    ORKY    H21   59    0.103   1.0080
   60    HC    1    ORKY    H22   60    0.094   1.0080
   61     C    1    ORKY    C19   61   -0.110  12.0110
   62    HC    1    ORKY    H23   62    0.094   1.0080
   63     C    1    ORKY    C20   63   -0.212  12.0110
   64    HC    1    ORKY    H24   64    0.076   1.0080
   65    HC    1    ORKY    H25   65    0.076   1.0080
   66    HC    1    ORKY    H26   66    0.076   1.0080
   67     C    1    ORKY    C21   67   -0.207  12.0110
   68    HC    1    ORKY    H27   68    0.074   1.0080
   69    HC    1    ORKY    H28   69    0.074   1.0080
   70    HC    1    ORKY    H30   70    0.074   1.0080
   71     N    1    ORKY     N5   71   -0.371  14.0067
   72  HS14    1    ORKY    H29   72    0.264   1.0080
   73  CPos    1    ORKY     C8   73    0.287  12.0110
   74 OEOpt    1    ORKY     O4   74   -0.377  15.9994
   75     C    1    ORKY     C7   75    0.017  12.0110
   76    HC    1    ORKY    H11   76    0.134   1.0080
   77     C    1    ORKY     C9   77   -0.128  12.0110
   78    HC    1    ORKY    H12   78    0.122   1.0080
   79    HC    1    ORKY    H13   79    0.114   1.0080
   80  CAro    1    ORKY    C10   80   -0.079  12.0110
   81  CAro    1    ORKY    C11   81   -0.123  12.0110
   82    HC    1    ORKY    H14   82    0.139   1.0080
   83  CAro    1    ORKY    C13   83   -0.132  12.0110
   84    HC    1    ORKY    H16   84    0.131   1.0080
   85  CAro    1    ORKY    C15   85   -0.131  12.0110
   86    HC    1    ORKY    H19   86    0.129   1.0080
   87  CAro    1    ORKY    C14   87   -0.132  12.0110
   88    HC    1    ORKY    H18   88    0.131   1.0080
   89  CAro    1    ORKY    C12   89   -0.123  12.0110
   90    HC    1    ORKY    H15   90    0.139   1.0080
   91     N    1    ORKY     N4   91   -0.358  14.0067
   92  HS14    1    ORKY    H17   92    0.264   1.0080
   93  CPos    1    ORKY     C4   93    0.286  12.0110
   94 OEOpt    1    ORKY     O2   94   -0.385  15.9994
   95     C    1    ORKY     C3   95    0.028  12.0110
   96    HC    1    ORKY     H5   96    0.125   1.0080
   97     C    1    ORKY     C5   97   -0.193  12.0110
   98    HC    1    ORKY     H6   98    0.125   1.0080
   99    HC    1    ORKY     H7   99    0.149   1.0080
  100  CPos    1    ORKY     C6  100    0.307  12.0110
  101 OEOpt    1    ORKY     O3  101   -0.406  15.9994
  102  NPri    1    ORKY     N3  102   -0.424  14.0067
  103  HS14    1    ORKY     H8  103    0.230   1.0080
  104  HS14    1    ORKY    H10  104    0.230   1.0080
  105     N    1    ORKY     N2  105   -0.374  14.0067
  106  HS14    1    ORKY     H9  106    0.252   1.0080
  107  CPos    1    ORKY     C2  107    0.260  12.0110
  108 OEOpt    1    ORKY     O1  108   -0.393  15.9994
  109  CPos    1    ORKY     C1  109   -0.087  12.0110
  110    HC    1    ORKY     H3  110    0.129   1.0080
  111    HC    1    ORKY     H4  111    0.119   1.0080
  112  NPri    1    ORKY     N1  112   -0.343  14.0067
  113     H    1    ORKY     H1  113    0.161   1.0080
  114     H    1    ORKY     H2  114    0.161   1.0080
; total charge of the molecule:  -1.000
[ bonds ]
;  ai   aj  funct   c0         c1
    1    2    2   0.1250   1.3400e+07
    2    3    2   0.1250   1.3400e+07
    2    4    2   0.1570   2.4342e+06
    4    5    2   0.1120   3.7000e+07
    4    6    2   0.1470   8.7100e+06
    4   13    2   0.1540   4.2166e+06
    6    7    2   0.1450   5.2319e+06
    6   16    2   0.1380   1.1000e+07
    7    8    2   0.1130   7.0483e+06
    7    9    2   0.1120   3.7000e+07
    7   10    2   0.1540   4.2166e+06
   10   11    2   0.1120   3.7000e+07
   10   12    2   0.1120   3.7000e+07
   10   13    2   0.1530   7.1500e+06
   13   14    2   0.1120   3.7000e+07
   13   15    2   0.1120   3.7000e+07
   16   17    2   0.1250   1.3400e+07
   16   18    2   0.1560   3.0819e+06
   18   19    2   0.1130   7.0483e+06
   18   20    2   0.1530   7.1500e+06
   18   24    2   0.1450   5.2319e+06
   20   21    2   0.1120   3.7000e+07
   20   22    2   0.1120   3.7000e+07
   20   23    2   0.1120   3.7000e+07
   24   25    2   0.1000   1.8700e+07
   24   26    2   0.1360   1.0200e+07
   26   27    2   0.1250   1.3400e+07
   26   28    2   0.1560   3.0819e+06
   28   29    2   0.1140   3.8473e+07
   28   30    2   0.1540   4.2166e+06
   28   35    2   0.1440   3.3758e+05
   30   31    2   0.1120   3.7000e+07
   30   32    2   0.1120   3.7000e+07
   30   33    2   0.1410   6.5389e+06
   33   34    2   0.0971   7.9547e+06
   35   36    2   0.1000   1.8700e+07
   35   37    2   0.1380   1.1000e+07
   37   38    2   0.1250   1.3400e+07
   37   39    2   0.1560   3.0819e+06
   39   40    2   0.1130   7.0483e+06
   39   41    2   0.1540   4.2166e+06
   39   52    2   0.1440   3.3758e+05
   41   42    2   0.1120   3.7000e+07
   41   43    2   0.1120   3.7000e+07
   41   44    2   0.1520   5.4300e+06
   44   45    2   0.1120   3.7000e+07
   44   46    2   0.1120   3.7000e+07
   44   47    2   0.1520   5.4300e+06
   47   48    2   0.1250   1.3400e+07
   47   49    2   0.1360   1.0200e+07
   49   50    2   0.1000   1.8700e+07
   49   51    2   0.1000   1.8700e+07
   52   53    2   0.1000   1.8700e+07
   52   54    2   0.1380   1.1000e+07
   54   55    2   0.1250   1.3400e+07
   54   56    2   0.1560   3.0819e+06
   56   57    2   0.1130   7.0483e+06
   56   58    2   0.1540   4.2166e+06
   56   71    2   0.1440   3.3758e+05
   58   59    2   0.1120   3.7000e+07
   58   60    2   0.1120   3.7000e+07
   58   61    2   0.1520   5.4300e+06
   61   62    2   0.1130   7.0483e+06
   61   63    2   0.1520   5.4300e+06
   61   67    2   0.1520   5.4300e+06
   63   64    2   0.1120   3.7000e+07
   63   65    2   0.1120   3.7000e+07
   63   66    2   0.1120   3.7000e+07
   67   68    2   0.1120   3.7000e+07
   67   69    2   0.1120   3.7000e+07
   67   70    2   0.1120   3.7000e+07
   71   72    2   0.1000   1.8700e+07
   71   73    2   0.1380   1.1000e+07
   73   74    2   0.1250   1.3400e+07
   73   75    2   0.1560   3.0819e+06
   75   76    2   0.1140   3.8473e+07
   75   77    2   0.1530   7.1500e+06
   75   91    2   0.1440   3.3758e+05
   77   78    2   0.1120   3.7000e+07
   77   79    2   0.1120   3.7000e+07
   77   80    2   0.1490   1.4189e+07
   80   81    2   0.1400   8.5400e+06
   80   89    2   0.1400   8.5400e+06
   81   82    2   0.1100   1.2100e+07
   81   83    2   0.1390   8.6600e+06
   83   84    2   0.1090   1.2300e+07
   83   85    2   0.1390   8.6600e+06
   85   86    2   0.1090   1.2300e+07
   85   87    2   0.1390   8.6600e+06
   87   88    2   0.1090   1.2300e+07
   87   89    2   0.1390   8.6600e+06
   89   90    2   0.1100   1.2100e+07
   91   92    2   0.1000   1.8700e+07
   91   93    2   0.1380   1.1000e+07
   93   94    2   0.1250   1.3400e+07
   93   95    2   0.1560   3.0819e+06
   95   96    2   0.1130   7.0483e+06
   95   97    2   0.1530   7.1500e+06
   95  105    2   0.1440   3.3758e+05
   97   98    2   0.1120   3.7000e+07
   97   99    2   0.1120   3.7000e+07
   97  100    2   0.1520   5.4300e+06
  100  101    2   0.1250   1.3400e+07
  100  102    2   0.1360   1.0200e+07
  102  103    2   0.0985   8.2455e+07
  102  104    2   0.0985   8.2455e+07
  105  106    2   0.1000   1.8700e+07
  105  107    2   0.1380   1.1000e+07
  107  108    2   0.1250   1.3400e+07
  107  109    2   0.1530   7.1500e+06
  109  110    2   0.1130   7.0483e+06
  109  111    2   0.1130   7.0483e+06
  109  112    2   0.1430   8.1800e+06
  112  113    2   0.1000   1.8700e+07
  112  114    2   0.1000   1.8700e+07
[ pairs ]
;  ai   aj  funct  ;  all 1-4 pairs but the ones excluded in GROMOS itp
    1    5    1
    1    6    1
    1   13    1
    2    7    1
    2   10    1
    2   14    1
    2   15    1
    2   16    1
    3    5    1
    3    6    1
    3   13    1
    4    8    1
    4    9    1
    4   11    1
    4   12    1
    4   17    1
    4   18    1
    5    7    1
    5   10    1
    5   14    1
    5   15    1
    5   16    1
    6   11    1
    6   12    1
    6   14    1
    6   15    1
    6   19    1
    6   20    1
    6   24    1
    7   14    1
    7   15    1
    7   17    1
    7   18    1
    8   11    1
    8   12    1
    8   13    1
    8   16    1
    9   11    1
    9   12    1
    9   13    1
    9   16    1
   10   16    1
   11   14    1
   11   15    1
   12   14    1
   12   15    1
   13   16    1
   16   21    1
   16   22    1
   16   23    1
   16   25    1
   16   26    1
   17   19    1
   17   20    1
   17   24    1
   18   27    1
   18   28    1
   19   21    1
   19   22    1
   19   23    1
   19   25    1
   19   26    1
   20   25    1
   20   26    1
   21   24    1
   22   24    1
   23   24    1
   24   29    1
   24   30    1
   24   35    1
   25   27    1
   25   28    1
   26   31    1
   26   32    1
   26   33    1
   26   36    1
   26   37    1
   27   29    1
   27   30    1
   27   35    1
   28   34    1
   28   38    1
   28   39    1
   29   31    1
   29   32    1
   29   33    1
   29   36    1
   29   37    1
   30   36    1
   30   37    1
   31   34    1
   31   35    1
   32   34    1
   32   35    1
   33   35    1
   35   40    1
   35   41    1
   35   52    1
   36   38    1
   36   39    1
   37   42    1
   37   43    1
   37   44    1
   37   53    1
   37   54    1
   38   40    1
   38   41    1
   38   52    1
   39   45    1
   39   46    1
   39   47    1
   39   55    1
   39   56    1
   40   42    1
   40   43    1
   40   44    1
   40   53    1
   40   54    1
   41   48    1
   41   49    1
   41   53    1
   41   54    1
   42   45    1
   42   46    1
   42   47    1
   42   52    1
   43   45    1
   43   46    1
   43   47    1
   43   52    1
   44   50    1
   44   51    1
   44   52    1
   45   48    1
   45   49    1
   46   48    1
   46   49    1
   48   50    1
   48   51    1
   52   57    1
   52   58    1
   52   71    1
   53   55    1
   53   56    1
   54   59    1
   54   60    1
   54   61    1
   54   72    1
   54   73    1
   55   57    1
   55   58    1
   55   71    1
   56   62    1
   56   63    1
   56   67    1
   56   74    1
   56   75    1
   57   59    1
   57   60    1
   57   61    1
   57   72    1
   57   73    1
   58   64    1
   58   65    1
   58   66    1
   58   68    1
   58   69    1
   58   70    1
   58   72    1
   58   73    1
   59   62    1
   59   63    1
   59   67    1
   59   71    1
   60   62    1
   60   63    1
   60   67    1
   60   71    1
   61   71    1
   62   64    1
   62   65    1
   62   66    1
   62   68    1
   62   69    1
   62   70    1
   63   68    1
   63   69    1
   63   70    1
   64   67    1
   65   67    1
   66   67    1
   71   76    1
   71   77    1
   71   91    1
   72   74    1
   72   75    1
   73   78    1
   73   79    1
   73   80    1
   73   92    1
   73   93    1
   74   76    1
   74   77    1
   74   91    1
   75   81    1
   75   89    1
   75   94    1
   75   95    1
   76   78    1
   76   79    1
   76   80    1
   76   92    1
   76   93    1
   77   82    1
   77   83    1
   77   87    1
   77   90    1
   77   92    1
   77   93    1
   78   81    1
   78   89    1
   78   91    1
   79   81    1
   79   89    1
   79   91    1
   80   84    1
   80   88    1
   80   91    1
   81   86    1
   81   90    1
   82   84    1
   82   85    1
   82   89    1
   83   88    1
   84   86    1
   84   87    1
   85   90    1
   86   88    1
   86   89    1
   88   90    1
   91   96    1
   91   97    1
   91  105    1
   92   94    1
   92   95    1
   93   98    1
   93   99    1
   93  100    1
   93  106    1
   93  107    1
   94   96    1
   94   97    1
   94  105    1
   95  101    1
   95  102    1
   95  108    1
   95  109    1
   96   98    1
   96   99    1
   96  100    1
   96  106    1
   96  107    1
   97  103    1
   97  104    1
   97  106    1
   97  107    1
   98  101    1
   98  102    1
   98  105    1
   99  101    1
   99  102    1
   99  105    1
  100  105    1
  101  103    1
  101  104    1
  105  110    1
  105  111    1
  105  112    1
  106  108    1
  106  109    1
  107  113    1
  107  114    1
  108  110    1
  108  111    1
  108  112    1
  110  113    1
  110  114    1
  111  113    1
  111  114    1
[ angles ]
;  ai   aj   ak  funct   angle     fc
    1    2    3    2    126.00   770.00
    1    2    4    2    115.00   610.00
    3    2    4    2    115.00   610.00
    2    4    5    2    108.00   465.00
    2    4    6    2    115.00   610.00
    2    4   13    2    109.50   520.00
    5    4    6    2    108.53   443.00
    5    4   13    2    112.00  4899.70
    6    4   13    2    108.00   465.00
    4    6    7    2    109.00  1680.51
    4    6   16    2    121.00   685.00
    7    6   16    2    124.00   730.00
    6    7    8    2    111.40   532.00
    6    7    9    2    109.00  1680.51
    6    7   10    2    108.00   465.00
    8    7    9    2    108.53   443.00
    8    7   10    2    109.60   450.00
    9    7   10    2    111.00   530.00
    7   10   11    2    110.30   524.00
    7   10   12    2    110.00   285.00
    7   10   13    2    109.50   520.00
   11   10   12    2    108.00   465.00
   11   10   13    2    111.30   632.00
   12   10   13    2    111.30   632.00
    4   13   10    2    109.50   520.00
    4   13   14    2    110.30   524.00
    4   13   15    2    109.50   285.00
   10   13   14    2    110.30   524.00
   10   13   15    2    112.00  4899.70
   14   13   15    2    108.53   443.00
    6   16   17    2    124.00   730.00
    6   16   18    2    120.00   560.00
   17   16   18    2    120.00   560.00
   16   18   19    2    111.40   532.00
   16   18   20    2    109.50   520.00
   16   18   24    2    111.00   530.00
   19   18   20    2    108.53   443.00
   19   18   24    2    107.00  2726.16
   20   18   24    2    115.00   610.00
   18   20   21    2    111.00   530.00
   18   20   22    2    111.00   530.00
   18   20   23    2    111.00   530.00
   21   20   22    2    107.60   507.00
   21   20   23    2    107.60   507.00
   22   20   23    2    107.60   507.00
   18   24   25    2    116.00   465.00
   18   24   26    2    122.00   700.00
   25   24   26    2    120.00   390.00
   24   26   27    2    124.00   730.00
   24   26   28    2    115.00   610.00
   27   26   28    2    120.00   560.00
   26   28   29    2    106.75   503.00
   26   28   30    2    109.50   520.00
   26   28   35    2    111.00   530.00
   29   28   30    2    108.00   465.00
   29   28   35    2    108.53   443.00
   30   28   35    2    111.00   530.00
   28   30   31    2    111.30   632.00
   28   30   32    2    111.00   530.00
   28   30   33    2    109.50   520.00
   31   30   32    2    109.50   285.00
   31   30   33    2    104.00   490.00
   32   30   33    2    110.30   524.00
   30   33   34    2    109.50   450.00
   28   35   36    2    115.00   460.00
   28   35   37    2    121.00   685.00
   36   35   37    2    116.00   465.00
   35   37   38    2    124.00   730.00
   35   37   39    2    115.00   610.00
   38   37   39    2    121.00   685.00
   37   39   40    2    111.00   530.00
   37   39   41    2    109.50   520.00
   37   39   52    2    109.50   520.00
   40   39   41    2    108.53   443.00
   40   39   52    2    107.60   507.00
   41   39   52    2    115.00   610.00
   39   41   42    2    109.50   285.00
   39   41   43    2    110.30   524.00
   39   41   44    2    111.00   530.00
   42   41   43    2    107.00  2726.16
   42   41   44    2    110.30   524.00
   43   41   44    2    108.53   443.00
   41   44   45    2    110.00   285.00
   41   44   46    2    111.00   530.00
   41   44   47    2    109.50   520.00
   45   44   46    2    107.60   507.00
   45   44   47    2    107.60   507.00
   46   44   47    2    110.30   524.00
   44   47   48    2    121.00   685.00
   44   47   49    2    120.00   560.00
   48   47   49    2    124.00   730.00
   47   49   50    2    120.00   390.00
   47   49   51    2    120.00   390.00
   50   49   51    2    120.00   445.00
   39   52   53    2    116.00   465.00
   39   52   54    2    122.00   700.00
   53   52   54    2    120.00   390.00
   52   54   55    2    124.00   730.00
   52   54   56    2    120.00   560.00
   55   54   56    2    120.00   560.00
   54   56   57    2    111.00   530.00
   54   56   58    2    109.50   520.00
   54   56   71    2    109.50   520.00
   57   56   58    2    108.53   443.00
   57   56   71    2    108.00   465.00
   58   56   71    2    115.00   610.00
   56   58   59    2    108.53   443.00
   56   58   60    2    109.60   450.00
   56   58   61    2    111.00   530.00
   59   58   60    2    107.60   507.00
   59   58   61    2    110.00   285.00
   60   58   61    2    109.00  1680.51
   58   61   62    2    109.00  1680.51
   58   61   63    2    111.00   530.00
   58   61   67    2    109.50   520.00
   62   61   63    2    108.53   443.00
   62   61   67    2    108.00   465.00
   63   61   67    2    109.50   520.00
   61   63   64    2    110.30   524.00
   61   63   65    2    110.30   524.00
   61   63   66    2    110.30   524.00
   64   63   65    2    108.53   443.00
   64   63   66    2    108.53   443.00
   65   63   66    2    108.53   443.00
   61   67   68    2    110.30   524.00
   61   67   69    2    110.30   524.00
   61   67   70    2    110.30   524.00
   68   67   69    2    108.53   443.00
   68   67   70    2    108.53   443.00
   69   67   70    2    108.53   443.00
   56   71   72    2    116.00   465.00
   56   71   73    2    122.00   700.00
   72   71   73    2    120.00   390.00
   71   73   74    2    124.00   730.00
   71   73   75    2    115.00   610.00
   74   73   75    2    121.00   685.00
   73   75   76    2    107.00  2726.16
   73   75   77    2    109.50   520.00
   73   75   91    2    111.00   530.00
   76   75   77    2    108.53   443.00
   76   75   91    2    108.53   443.00
   77   75   91    2    111.00   530.00
   75   77   78    2    107.00  2726.16
   75   77   79    2    109.60   450.00
   75   77   80    2    111.00   530.00
   78   77   79    2    107.00  2726.16
   78   77   80    2    110.30   524.00
   79   77   80    2    111.00   530.00
   77   80   81    2    120.00   560.00
   77   80   89    2    120.00   560.00
   81   80   89    2    120.00   560.00
   80   81   82    2    120.00   505.00
   80   81   83    2    120.00   560.00
   82   81   83    2    120.00   505.00
   81   83   84    2    120.00   505.00
   81   83   85    2    120.00   560.00
   84   83   85    2    120.00   505.00
   83   85   86    2    120.00   505.00
   83   85   87    2    120.00   560.00
   86   85   87    2    120.00   505.00
   85   87   88    2    120.00   505.00
   85   87   89    2    120.00   560.00
   88   87   89    2    120.00   505.00
   80   89   87    2    120.00   560.00
   80   89   90    2    120.00   505.00
   87   89   90    2    120.00   505.00
   75   91   92    2    116.00   465.00
   75   91   93    2    122.00   700.00
   92   91   93    2    120.00   390.00
   91   93   94    2    124.00   730.00
   91   93   95    2    115.00   610.00
   94   93   95    2    121.00   685.00
   93   95   96    2    107.00  2726.16
   93   95   97    2    109.50   520.00
   93   95  105    2    111.00   530.00
   96   95   97    2    109.00  1680.51
   96   95  105    2    108.53   443.00
   97   95  105    2    111.00   530.00
   95   97   98    2    107.60   507.00
   95   97   99    2    109.60   450.00
   95   97  100    2    111.00   530.00
   98   97   99    2    107.00  2726.16
   98   97  100    2    113.00   545.00
   99   97  100    2    107.60   507.00
   97  100  101    2    121.00   685.00
   97  100  102    2    120.00   560.00
  101  100  102    2    124.00   730.00
  100  102  103    2    120.00   390.00
  100  102  104    2    120.00   390.00
  103  102  104    2    120.00   445.00
   95  105  106    2    116.00   465.00
   95  105  107    2    122.00   700.00
  106  105  107    2    120.00   390.00
  105  107  108    2    124.00   730.00
  105  107  109    2    120.00   560.00
  108  107  109    2    121.00   685.00
  107  109  110    2    106.00  1733.55
  107  109  111    2    107.00  2726.16
  107  109  112    2    115.00   610.00
  110  109  111    2    108.00   465.00
  110  109  112    2    108.53   443.00
  111  109  112    2    109.00  1680.51
  109  112  113    2    115.00   460.00
  109  112  114    2    115.00   460.00
  113  112  114    2    109.50   285.00
[ dihedrals ]
; GROMOS improper dihedrals
;  ai   aj   ak   al  funct   angle     fc
  107  105  108  109    2      0.00   167.36
  105   95  106  107    2      0.00   167.36
   93   91   94   95    2      0.00   167.36
  100   97  101  102    2      0.00   167.36
  102  100  103  104    2      0.00   167.36
   91   75   92   93    2      0.00   167.36
   73   71   74   75    2      0.00   167.36
   80   77   81   89    2      0.00   167.36
   81   80   82   83    2      0.00   167.36
   89   80   87   90    2      0.00   167.36
   83   81   84   85    2      0.00   167.36
   87   85   88   89    2      0.00   167.36
   85   83   86   87    2      0.00   167.36
   71   56   72   73    2      0.00   167.36
   54   52   55   56    2      0.00   167.36
   52   39   53   54    2      0.00   167.36
   37   35   38   39    2      0.00   167.36
   47   44   48   49    2      0.00   167.36
   49   47   50   51    2      0.00   167.36
   26   24   27   28    2      0.00   167.36
   24   18   25   26    2      0.00   167.36
   16    6   17   18    2      0.00   167.36
    2    1    3    4    2      0.00   167.36
[ dihedrals ]
;  ai   aj   ak   al  funct    ph0      cp     mult
    2    4    6   16    1    180.00     1.00    6
    3    2    4    6    1    180.00     1.00    6
    4    6   16   18    1    180.00    33.50    2
    6    4   13   10    1    180.00     1.00    3
    6    7   10   13    1    180.00     1.00    3
    7   10   13    4    1    180.00     1.00    3
   16    6    7   10    1    180.00     1.00    6
   16   18   24   26    1      0.00     3.77    6
   17   16   18   24    1      0.00     1.00    6
   18   24   26   28    1    180.00    33.50    2
   24   18   20   21    1      0.00     5.92    3
   26   28   35   37    1    180.00     1.00    6
   27   26   28   35    1    180.00     1.00    6
   28   30   33   34    1      0.00     1.26    3
   28   35   37   39    1    180.00    33.50    2
   35   28   30   33    1      0.00     5.92    3
   37   39   52   54    1    180.00     1.00    6
   38   37   39   52    1      0.00     1.00    6
   39   41   44   47    1      0.00     5.92    3
   39   52   54   56    1    180.00    33.50    2
   41   44   47   49    1    180.00     1.00    6
   44   47   49   50    1    180.00    33.50    2
   52   39   41   44    1      0.00     5.92    3
   54   56   71   73    1    180.00     1.00    6
   55   54   56   71    1    180.00     1.00    6
   56   58   61   63    1      0.00     5.92    3
   56   71   73   75    1    180.00    33.50    2
   58   61   63   64    1      0.00     5.92    3
   58   61   67   68    1      0.00     5.92    3
   71   56   58   61    1      0.00     5.92    3
   73   75   91   93    1      0.00     3.77    6
   74   73   75   91    1    180.00     1.00    6
   75   77   80   81    1      0.00     1.00    6
   75   91   93   95    1    180.00    33.50    2
   80   81   83   85    1    180.00    41.80    2
   81   80   89   87    1    180.00    41.80    2
   81   83   85   87    1    180.00    41.80    2
   83   85   87   89    1    180.00    41.80    2
   85   87   89   80    1    180.00    41.80    2
   89   80   81   83    1    180.00    41.80    2
   91   75   77   80    1      0.00     5.92    3
   93   95  105  107    1      0.00     3.77    6
   94   93   95  105    1    180.00     1.00    6
   95   97  100  102    1    180.00     1.00    6
   95  105  107  109    1    180.00    33.50    2
   97  100  102  103    1    180.00    33.50    2
  105   95   97  100    1      0.00     5.92    3
  107  109  112  113    1    180.00     1.00    6
  108  107  109  112    1    180.00     1.00    6
[ exclusions ]
;  ai   aj  funct  ;  GROMOS 1-4 exclusions
   80   85
   81   87
   83   89