[ moleculetype ]
; Name   nrexcl
K6H     3
[ atoms ]
;  nr  type  resnr  resid  atom  cgnr  charge    mass
     1 O             1 K6H   O8          1    -0.347   15.9994
     2 N             1 K6H   N5          2     0.560   14.0067
     3 O             1 K6H   O7          3    -0.347   15.9994
     4 CR1           1 K6H   C30         4    -0.074   12.0110
     5 CR1           1 K6H   C28         5    -0.096   12.0110
     6 HC            1 K6H   H28         6     0.178    1.0080
     7 CR1           1 K6H   C26         7    -0.032   12.0110
     8 HC            1 K6H   H26         8     0.169    1.0080
     9 CR1           1 K6H   C25         9    -0.772   12.0110
    10 CR1           1 K6H   C27        10    -0.032   12.0110
    11 HC            1 K6H   H27        11     0.169    1.0080
    12 CR1           1 K6H   C29        12    -0.096   12.0110
    13 HC            1 K6H   H29        13     0.178    1.0080
    14 SDmso         1 K6H   S2         14     2.829   32.0600
    15 OM            1 K6H   O3         15    -0.906   15.9994
    16 OM            1 K6H   O4         16    -0.920   15.9994
    17 N             1 K6H   N2         17    -0.812   14.0067
    18 C             1 K6H   C18        18     0.016   12.0110
    19 HC            1 K6H   H19        19     0.102    1.0080
    20 HC            1 K6H   H20        20     0.114    1.0080
    21 CR1           1 K6H   C19        21    -0.110   12.0110
    22 CR1           1 K6H   C20        22    -0.120   12.0110
    23 HC            1 K6H   H21        23     0.149    1.0080
    24 CR1           1 K6H   C22        24    -0.134   12.0110
    25 HC            1 K6H   H23        25     0.138    1.0080
    26 CR1           1 K6H   C24        26    -0.133   12.0110
    27 HC            1 K6H   H25        27     0.132    1.0080
    28 CR1           1 K6H   C23        28    -0.134   12.0110
    29 HC            1 K6H   H24        29     0.138    1.0080
    30 CR1           1 K6H   C21        30    -0.120   12.0110
    31 HC            1 K6H   H22        31     0.149    1.0080
    32 C             1 K6H   C2         32     0.011   12.0110
    33 HC            1 K6H   H04        33     0.128    1.0080
    34 C             1 K6H   C4         34     0.012   12.0110
    35 HC            1 K6H   H05        35     0.119    1.0080
    36 C             1 K6H   C6         36    -0.105   12.0110
    37 HC            1 K6H   H08        37     0.107    1.0080
    38 HC            1 K6H   H09        38     0.093    1.0080
    39 N             1 K6H   N1         39    -0.278   14.0067
    40 H             1 K6H   H03        40     0.152    1.0080
    41 C             1 K6H   C5         41    -0.106   12.0110
    42 HC            1 K6H   H06        42     0.085    1.0080
    43 HC            1 K6H   H07        43     0.106    1.0080
    44 N             1 K6H   N3         44    -0.818   14.0067
    45 C             1 K6H   C1         45     0.011   12.0110
    46 HC            1 K6H   H01        46     0.089    1.0080
    47 HC            1 K6H   H02        47     0.129    1.0080
    48 CR1           1 K6H   C3         48    -0.111   12.0110
    49 CR1           1 K6H   C7         49    -0.120   12.0110
    50 HC            1 K6H   H10        50     0.139    1.0080
    51 CR1           1 K6H   C9         51    -0.129   12.0110
    52 HC            1 K6H   H12        52     0.141    1.0080
    53 CR1           1 K6H   C11        53    -0.132   12.0110
    54 HC            1 K6H   H14        54     0.137    1.0080
    55 CR1           1 K6H   C10        55    -0.129   12.0110
    56 HC            1 K6H   H13        56     0.141    1.0080
    57 CR1           1 K6H   C8         57    -0.120   12.0110
    58 HC            1 K6H   H11        58     0.139    1.0080
    59 SDmso         1 K6H   S1         59     2.835   32.0600
    60 OM            1 K6H   O5         60    -0.910   15.9994
    61 OM            1 K6H   O6         61    -0.918   15.9994
    62 CR1           1 K6H   C13        62    -0.820   12.0110
    63 CR1           1 K6H   C12        63     0.014   12.0110
    64 HC            1 K6H   H15        64     0.177    1.0080
    65 CR1           1 K6H   C14        65    -0.160   12.0110
    66 HC            1 K6H   H16        66     0.159    1.0080
    67 CR1           1 K6H   C16        67    -0.013   12.0110
    68 HC            1 K6H   H18        68     0.176    1.0080
    69 CR1           1 K6H   C17        69    -0.159   12.0110
    70 CR1           1 K6H   C15        70     0.042   12.0110
    71 HC            1 K6H   H17        71     0.183    1.0080
    72 N             1 K6H   N4         72     0.571   14.0067
    73 O             1 K6H   O1         73    -0.352   15.9994
    74 O             1 K6H   O2         74    -0.352   15.9994
; total charge of the molecule:   0.000
[ bonds ]
;  ai   aj  funct   c0         c1
    1    2    2   0.1200   6.9444e+06
    2    3    2   0.1200   6.9444e+06
    2    4    2   0.1490   1.4189e+07
    4    5    2   0.1400   8.5400e+06
    4   12    2   0.1400   8.5400e+06
    5    6    2   0.1100   1.2100e+07
    5    7    2   0.1390   8.6600e+06
    7    8    2   0.1110   4.8697e+06
    7    9    2   0.1390   8.6600e+06
    9   10    2   0.1390   8.6600e+06
    9   14    2   0.1710   2.0519e+06
   10   11    2   0.1110   4.8697e+06
   10   12    2   0.1390   8.6600e+06
   12   13    2   0.1100   1.2100e+07
   14   15    2   0.1410   6.5389e+06
   14   16    2   0.1410   6.5389e+06
   14   17    2   0.1633   8.7100e+06
   17   18    2   0.1440   3.3758e+05
   17   32    2   0.1440   3.3758e+05
   18   19    2   0.1130   7.0483e+06
   18   20    2   0.1130   7.0483e+06
   18   21    2   0.1500   8.3700e+06
   21   22    2   0.1390   8.6600e+06
   21   30    2   0.1390   8.6600e+06
   22   23    2   0.1100   1.2100e+07
   22   24    2   0.1390   8.6600e+06
   24   25    2   0.1100   1.2100e+07
   24   26    2   0.1390   8.6600e+06
   26   27    2   0.1090   1.2300e+07
   26   28    2   0.1390   8.6600e+06
   28   29    2   0.1100   1.2100e+07
   28   30    2   0.1390   8.6600e+06
   30   31    2   0.1100   1.2100e+07
   32   33    2   0.1130   7.0483e+06
   32   34    2   0.1580   7.2104e+06
   32   41    2   0.1560   3.0819e+06
   34   35    2   0.1130   7.0483e+06
   34   36    2   0.1560   3.0819e+06
   34   44    2   0.1440   3.3758e+05
   36   37    2   0.1130   7.0483e+06
   36   38    2   0.1120   3.7000e+07
   36   39    2   0.1450   5.2319e+06
   39   40    2   0.1000   1.8700e+07
   39   41    2   0.1460   4.6913e+06
   41   42    2   0.1130   7.0483e+06
   41   43    2   0.1120   3.7000e+07
   44   45    2   0.1440   3.3758e+05
   44   59    2   0.1640   3.5321e+06
   45   46    2   0.1130   7.0483e+06
   45   47    2   0.1130   7.0483e+06
   45   48    2   0.1500   8.3700e+06
   48   49    2   0.1390   8.6600e+06
   48   57    2   0.1390   8.6600e+06
   49   50    2   0.1100   1.2100e+07
   49   51    2   0.1390   8.6600e+06
   51   52    2   0.1100   1.2100e+07
   51   53    2   0.1390   8.6600e+06
   53   54    2   0.1100   1.2100e+07
   53   55    2   0.1390   8.6600e+06
   55   56    2   0.1100   1.2100e+07
   55   57    2   0.1390   8.6600e+06
   57   58    2   0.1100   1.2100e+07
   59   60    2   0.1400   8.5400e+06
   59   61    2   0.1410   6.5389e+06
   59   62    2   0.1710   2.0519e+06
   62   63    2   0.1400   8.5400e+06
   62   70    2   0.1390   8.6600e+06
   63   64    2   0.1110   4.8697e+06
   63   65    2   0.1390   8.6600e+06
   65   66    2   0.1100   1.2100e+07
   65   67    2   0.1390   8.6600e+06
   67   68    2   0.1100   1.2100e+07
   67   69    2   0.1410   6.5389e+06
   69   70    2   0.1400   8.5400e+06
   69   72    2   0.1480   5.7300e+06
   70   71    2   0.1110   4.8697e+06
   72   73    2   0.1200   6.9444e+06
   72   74    2   0.1200   6.9444e+06
[ pairs ]
;  ai   aj  funct  ;  all 1-4 pairs but the ones excluded in GROMOS itp
    1    5    1
    1   12    1
    2    6    1
    2    7    1
    2   10    1
    2   13    1
    3    5    1
    3   12    1
    4    8    1
    4   11    1
    5   13    1
    5   14    1
    6    8    1
    6    9    1
    6   12    1
    7   11    1
    7   15    1
    7   16    1
    7   17    1
    8   10    1
    8   14    1
    9   13    1
    9   18    1
    9   32    1
   10   15    1
   10   16    1
   10   17    1
   11   13    1
   11   14    1
   12   14    1
   14   19    1
   14   20    1
   14   21    1
   14   33    1
   14   34    1
   14   41    1
   15   18    1
   15   32    1
   16   18    1
   16   32    1
   17   22    1
   17   30    1
   17   35    1
   17   36    1
   17   39    1
   17   42    1
   17   43    1
   17   44    1
   18   23    1
   18   24    1
   18   28    1
   18   31    1
   18   33    1
   18   34    1
   18   41    1
   19   22    1
   19   30    1
   19   32    1
   20   22    1
   20   30    1
   20   32    1
   21   25    1
   21   29    1
   21   32    1
   22   27    1
   22   31    1
   23   25    1
   23   26    1
   23   30    1
   24   29    1
   25   27    1
   25   28    1
   26   31    1
   27   29    1
   27   30    1
   29   31    1
   32   37    1
   32   38    1
   32   40    1
   32   45    1
   32   59    1
   33   35    1
   33   36    1
   33   39    1
   33   42    1
   33   43    1
   33   44    1
   34   40    1
   34   42    1
   34   43    1
   34   46    1
   34   47    1
   34   48    1
   34   60    1
   34   61    1
   34   62    1
   35   37    1
   35   38    1
   35   39    1
   35   41    1
   35   45    1
   35   59    1
   36   42    1
   36   43    1
   36   45    1
   36   59    1
   37   40    1
   37   41    1
   37   44    1
   38   40    1
   38   41    1
   38   44    1
   39   44    1
   40   42    1
   40   43    1
   41   44    1
   44   49    1
   44   57    1
   44   63    1
   44   70    1
   45   50    1
   45   51    1
   45   55    1
   45   58    1
   45   60    1
   45   61    1
   45   62    1
   46   49    1
   46   57    1
   46   59    1
   47   49    1
   47   57    1
   47   59    1
   48   52    1
   48   56    1
   48   59    1
   49   54    1
   49   58    1
   50   52    1
   50   53    1
   50   57    1
   51   56    1
   52   54    1
   52   55    1
   53   58    1
   54   56    1
   54   57    1
   56   58    1
   59   64    1
   59   65    1
   59   69    1
   59   71    1
   60   63    1
   60   70    1
   61   63    1
   61   70    1
   62   66    1
   62   72    1
   63   68    1
   63   71    1
   64   66    1
   64   67    1
   64   70    1
   65   72    1
   66   68    1
   66   69    1
   67   71    1
   67   73    1
   67   74    1
   68   70    1
   68   72    1
   70   73    1
   70   74    1
   71   72    1
[ angles ]
;  ai   aj   ak  funct   angle     fc
    1    2    3    2    122.00   700.00
    1    2    4    2    119.00  2211.40
    3    2    4    2    119.00  2211.40
    2    4    5    2    120.00   560.00
    2    4   12    2    120.00   560.00
    5    4   12    2    120.00   560.00
    4    5    6    2    120.00   505.00
    4    5    7    2    120.00   560.00
    6    5    7    2    120.00   505.00
    5    7    8    2    120.00   505.00
    5    7    9    2    120.00   560.00
    8    7    9    2    120.00   505.00
    7    9   10    2    120.00   560.00
    7    9   14    2    120.00   560.00
   10    9   14    2    120.00   560.00
    9   10   11    2    120.00   505.00
    9   10   12    2    120.00   560.00
   11   10   12    2    120.00   505.00
    4   12   10    2    120.00   560.00
    4   12   13    2    120.00   505.00
   10   12   13    2    120.00   505.00
    9   14   15    2    106.75   503.00
    9   14   16    2    107.60   507.00
    9   14   17    2    103.00   420.00
   15   14   16    2    117.20   636.00
   15   14   17    2    111.30   632.00
   16   14   17    2    109.60   450.00
   14   17   18    2    121.00   685.00
   14   17   32    2    120.00   390.00
   18   17   32    2    120.00   560.00
   17   18   19    2    107.60   507.00
   17   18   20    2    109.00  1680.51
   17   18   21    2    115.00   610.00
   19   18   20    2    107.57   484.00
   19   18   21    2    107.00  2726.16
   20   18   21    2    108.53   443.00
   18   21   22    2    120.00   560.00
   18   21   30    2    120.00   560.00
   22   21   30    2    120.00   560.00
   21   22   23    2    120.00   505.00
   21   22   24    2    120.00   560.00
   23   22   24    2    120.00   505.00
   22   24   25    2    120.00   505.00
   22   24   26    2    120.00   560.00
   25   24   26    2    120.00   505.00
   24   26   27    2    120.00   505.00
   24   26   28    2    120.00   560.00
   27   26   28    2    120.00   505.00
   26   28   29    2    120.00   505.00
   26   28   30    2    120.00   560.00
   29   28   30    2    120.00   505.00
   21   30   28    2    120.00   560.00
   21   30   31    2    120.00   505.00
   28   30   31    2    120.00   505.00
   17   32   33    2    106.75   503.00
   17   32   34    2    115.00   610.00
   17   32   41    2    115.00   610.00
   33   32   34    2    109.00  1680.51
   33   32   41    2    108.00   465.00
   34   32   41    2    104.00   490.00
   32   34   35    2    109.50   285.00
   32   34   36    2    103.00   420.00
   32   34   44    2    115.00   610.00
   35   34   36    2    108.00   465.00
   35   34   44    2    106.75   503.00
   36   34   44    2    115.00   610.00
   34   36   37    2    107.57   484.00
   34   36   38    2    112.00  4899.70
   34   36   39    2    109.50   520.00
   37   36   38    2    108.00   465.00
   37   36   39    2    107.00  2726.16
   38   36   39    2    112.00  4899.70
   36   39   40    2    109.50   425.00
   36   39   41    2    109.00  1680.51
   40   39   41    2    109.50   425.00
   32   41   39    2    109.50   520.00
   32   41   42    2    107.60   507.00
   32   41   43    2    112.00  4899.70
   39   41   42    2    111.40   532.00
   39   41   43    2    107.60   507.00
   42   41   43    2    107.60   507.00
   34   44   45    2    120.00   560.00
   34   44   59    2    121.00   685.00
   45   44   59    2    120.00   390.00
   44   45   46    2    109.00  1680.51
   44   45   47    2    108.00   465.00
   44   45   48    2    115.00   610.00
   46   45   47    2    107.00  2726.16
   46   45   48    2    108.53   443.00
   47   45   48    2    106.75   503.00
   45   48   49    2    120.00   560.00
   45   48   57    2    120.00   560.00
   49   48   57    2    120.00   560.00
   48   49   50    2    120.00   505.00
   48   49   51    2    120.00   560.00
   50   49   51    2    120.00   505.00
   49   51   52    2    120.00   505.00
   49   51   53    2    120.00   560.00
   52   51   53    2    120.00   505.00
   51   53   54    2    120.00   505.00
   51   53   55    2    120.00   560.00
   54   53   55    2    120.00   505.00
   53   55   56    2    120.00   505.00
   53   55   57    2    120.00   560.00
   56   55   57    2    120.00   505.00
   48   57   55    2    120.00   560.00
   48   57   58    2    120.00   505.00
   55   57   58    2    120.00   505.00
   44   59   60    2    111.30   632.00
   44   59   61    2    109.60   450.00
   44   59   62    2    103.00   420.00
   60   59   61    2    117.20   636.00
   60   59   62    2    106.75   503.00
   61   59   62    2    108.00   465.00
   59   62   63    2    120.00   560.00
   59   62   70    2    120.00   560.00
   63   62   70    2    120.00   560.00
   62   63   64    2    120.00   505.00
   62   63   65    2    120.00   560.00
   64   63   65    2    120.00   505.00
   63   65   66    2    120.00   505.00
   63   65   67    2    120.00   560.00
   66   65   67    2    120.00   505.00
   65   67   68    2    120.00   505.00
   65   67   69    2    120.00   560.00
   68   67   69    2    120.00   505.00
   67   69   70    2    120.00   560.00
   67   69   72    2    120.00   560.00
   70   69   72    2    120.00   560.00
   62   70   69    2    120.00   560.00
   62   70   71    2    120.00   505.00
   69   70   71    2    120.00   505.00
   69   72   73    2    119.00  2211.40
   69   72   74    2    119.00  2211.40
   73   72   74    2    122.00   700.00
[ dihedrals ]
; GROMOS improper dihedrals
;  ai   aj   ak   al  funct   angle     fc
   17   14   18   32    2      0.00   167.36
   48   45   49   57    2      0.00   167.36
   44   34   45   59    2      0.00   167.36
   72   69   73   74    2      0.00   167.36
    2    1    3    4    2      0.00   167.36
   49   48   50   51    2      0.00   167.36
   57   48   55   58    2      0.00   167.36
   51   49   52   53    2      0.00   167.36
   55   53   56   57    2      0.00   167.36
   53   51   54   55    2      0.00   167.36
   63   62   64   65    2      0.00   167.36
   62   59   63   70    2      0.00   167.36
   65   63   66   67    2      0.00   167.36
   70   62   69   71    2      0.00   167.36
   67   65   68   69    2      0.00   167.36
   69   67   70   72    2      0.00   167.36
   21   18   22   30    2      0.00   167.36
   22   21   23   24    2      0.00   167.36
   30   21   28   31    2      0.00   167.36
   24   22   25   26    2      0.00   167.36
   28   26   29   30    2      0.00   167.36
   26   24   27   28    2      0.00   167.36
    9    7   10   14    2      0.00   167.36
    7    5    8    9    2      0.00   167.36
   10    9   11   12    2      0.00   167.36
    5    4    6    7    2      0.00   167.36
   12    4   10   13    2      0.00   167.36
    4    2    5   12    2      0.00   167.36
[ dihedrals ]
;  ai   aj   ak   al  funct    ph0      cp     mult
    3    2    4    5    1    180.00    33.50    2
    4    5    7    9    1    180.00    41.80    2
    5    4   12   10    1    180.00    41.80    2
    5    7    9   10    1    180.00    41.80    2
    7    9   10   12    1    180.00    41.80    2
    7    9   14   17    1      0.00     1.00    6
    9   10   12    4    1    180.00    41.80    2
   12    4    5    7    1    180.00    41.80    2
   14   17   32   34    1    180.00     1.00    6
   15   14   17   32    1      0.00     1.00    6
   17   18   21   22    1    180.00     1.00    6
   17   32   34   44    1    180.00     1.00    3
   17   32   41   39    1    180.00     1.00    3
   21   22   24   26    1    180.00    41.80    2
   22   21   30   28    1    180.00    41.80    2
   22   24   26   28    1    180.00    41.80    2
   24   26   28   30    1    180.00    41.80    2
   26   28   30   21    1    180.00    41.80    2
   30   21   22   24    1    180.00    41.80    2
   32   17   18   21    1      0.00     3.77    6
   32   34   36   39    1    180.00     1.00    3
   32   34   44   45    1    180.00     1.00    6
   34   36   39   41    1    180.00     1.00    6
   36   39   41   32    1    180.00     1.00    6
   44   45   48   49    1    180.00     1.00    6
   44   59   62   63    1      0.00     1.00    6
   45   44   59   60    1    180.00     1.00    6
   48   49   51   53    1    180.00    41.80    2
   49   48   57   55    1    180.00    41.80    2
   49   51   53   55    1    180.00    41.80    2
   51   53   55   57    1    180.00    41.80    2
   53   55   57   48    1    180.00    41.80    2
   57   48   49   51    1    180.00    41.80    2
   59   44   45   48    1      0.00     3.77    6
   62   63   65   67    1    180.00    41.80    2
   63   62   70   69    1    180.00    41.80    2
   63   65   67   69    1    180.00    41.80    2
   65   67   69   70    1    180.00    41.80    2
   67   69   70   62    1    180.00    41.80    2
   70   62   63   65    1    180.00    41.80    2
   70   69   72   73    1    180.00    33.50    2
[ exclusions ]
;  ai   aj  funct  ;  GROMOS 1-4 exclusions
    4    9
    5   10
    7   12
   21   26
   22   28
   24   30
   48   53
   49   55
   51   57
   62   67
   63   69
   65   70