        43  EXT
         1         1  HYB       S1              6.6210000000       21.6220000000        5.9190000000  HETA      201            15.6100000000
         2         1  HYB       O2              7.1970000000       22.5700000000        5.0060000000  HETA      201            19.8800000000
         3         1  HYB       O3              5.2160000000       21.6780000000        6.1610000000  HETA      201            19.0300000000
         4         1  HYB       C4              8.4910000000       20.5780000000       -0.6840000000  HETA      201            22.2500000000
         5         1  HYB       C5              8.9520000000       21.1350000000        0.4700000000  HETA      201            22.4700000000
         6         1  HYB       C6              8.6110000000       20.5470000000        1.7520000000  HETA      201            20.4200000000
         7         1  HYB       C7              7.8370000000       19.4420000000        1.8080000000  HETA      201            16.9700000000
         8         1  HYB       C8              7.3020000000       18.8100000000        0.5580000000  HETA      201            19.8500000000
         9         1  HYB       C9              7.6630000000       19.4050000000       -0.6580000000  HETA      201            22.6600000000
        10         1  HYB       C10             7.2020000000       18.8360000000       -1.8950000000  HETA      201            19.0400000000
        11         1  HYB       C11             6.4000000000       17.7250000000       -1.8720000000  HETA      201            18.8400000000
        12         1  HYB       C12             6.0270000000       17.1270000000       -0.6360000000  HETA      201            23.4200000000
        13         1  HYB       C13             6.4850000000       17.6740000000        0.5660000000  HETA      201            17.9400000000
        14         1  HYB       O14             0.8330000000       16.7560000000        1.3920000000  HETA      201            12.2600000000
        15         1  HYB       C15             0.5440000000       17.7320000000        0.3250000000  HETA      201             8.2400000000
        16         1  HYB       N16             2.0570000000       18.7450000000        1.9350000000  HETA      201             8.1300000000
        17         1  HYB       C17             1.5590000000       18.8860000000        0.5560000000  HETA      201             9.9900000000
        18         1  HYB       C18             2.7730000000       18.7840000000       -0.3990000000  HETA      201             6.2100000000
        19         1  HYB       C19             3.6070000000       20.0130000000       -0.6960000000  HETA      201             6.9400000000
        20         1  HYB       C20             4.3250000000       20.7120000000        0.2810000000  HETA      201            16.3900000000
        21         1  HYB       C21             5.1390000000       21.8120000000       -0.0140000000  HETA      201            20.9400000000
        22         1  HYB       C22             5.2350000000       22.2400000000       -1.3430000000  HETA      201            21.7200000000
        23         1  HYB       C23             4.5510000000       21.5480000000       -2.3400000000  HETA      201            17.1400000000
        24         1  HYB       C24             3.7440000000       20.4500000000       -2.0240000000  HETA      201            16.2600000000
        25         1  HYB       N25             4.0580000000       19.8270000000        4.1670000000  HETA      201             9.1100000000
        26         1  HYB       C26             2.6510000000       19.3550000000        4.2450000000  HETA      201             4.8000000000
        27         1  HYB       C27             2.0520000000       19.7810000000        2.8510000000  HETA      201             7.4300000000
        28         1  HYB       O28             1.5660000000       20.8720000000        2.5940000000  HETA      201             8.2400000000
        29         1  HYB       C29             1.8570000000       19.9250000000        5.4460000000  HETA      201             7.3900000000
        30         1  HYB       C30             0.3960000000       19.4450000000        5.4290000000  HETA      201             6.7100000000
        31         1  HYB       C31             2.6140000000       19.4920000000        6.7240000000  HETA      201             7.0500000000
        32         1  HYB       C32             5.1360000000       19.0020000000        4.0570000000  HETA      201             9.7200000000
        33         1  HYB       O33             5.0400000000       17.7710000000        3.9800000000  HETA      201            12.4500000000
        34         1  HYB       C34             6.5010000000       19.7110000000        3.9380000000  HETA      201            12.1800000000
        35         1  HYB       C35             7.3870000000       18.7490000000        3.1060000000  HETA      201            12.8100000000
        36         1  HYB       C36             7.1440000000       20.0210000000        5.3290000000  HETA      201            11.7100000000
        37         1  HYB       C37             6.4910000000       21.3910000000        8.7100000000  HETA      201            20.0600000000
        38         1  HYB       C38             7.4290000000       21.8340000000        7.5600000000  HETA      201            17.4200000000
        39         1  HYB       C39             7.6420000000       23.3600000000        7.7150000000  HETA      201            16.3000000000
        40         1  HYB       C40             8.7840000000       21.0840000000        7.5860000000  HETA      201            19.0700000000
        41         1  HYB       H14             1.2880000000       16.0450000000        0.9550000000  HETA      201             0.0000000000
        42         1  HYB       H16             2.4220000000       17.8390000000        2.2290000000  HETA      201             0.0000000000
        43         1  HYB       H25             4.2270000000       20.8330000000        4.1970000000  HETA      201             0.0000000000
