* GENERATE LIGAND
*  DATE:     1/24/26      8:11:14      CREATED BY USER: charmm-gui
*
        82  EXT
         1         1  LIG       S1              6.6350719438       21.6516826069        5.9169824250  LIG       1               0.0000000000
         2         1  LIG       O1              7.2484662459       22.5502641844        4.9752868854  LIG       1               0.0000000000
         3         1  LIG       O2              5.2122740754       21.6834084545        6.1198602993  LIG       1               0.0000000000
         4         1  LIG       C1              8.4804693800       20.5482159963       -0.6973102247  LIG       1               0.0000000000
         5         1  LIG       C2              8.9293340422       21.1012180726        0.5046059922  LIG       1               0.0000000000
         6         1  LIG       C3              8.5762400028       20.5096913896        1.7202972154  LIG       1               0.0000000000
         7         1  LIG       C4              7.7648070256       19.3618387516        1.7581389392  LIG       1               0.0000000000
         8         1  LIG       C5              7.2978339428       18.7990407918        0.5470233634  LIG       1               0.0000000000
         9         1  LIG       C6              7.6717873876       19.4034079574       -0.6907383078  LIG       1               0.0000000000
        10         1  LIG       C7              7.2209882411       18.8590618550       -1.9029661929  LIG       1               0.0000000000
        11         1  LIG       C8              6.4062837783       17.7217891368       -1.9070452174  LIG       1               0.0000000000
        12         1  LIG       C9              6.0342328140       17.1253993679       -0.7010973708  LIG       1               0.0000000000
        13         1  LIG       C10             6.4659294795       17.6646656567        0.5149545807  LIG       1               0.0000000000
        14         1  LIG       O3              0.8162212368       16.6321362026        1.2751930253  LIG       1               0.0000000000
        15         1  LIG       C11             0.5901713142       17.7227540881        0.3727485589  LIG       1               0.0000000000
        16         1  LIG       N1              2.1052332791       18.8220548179        1.9512763067  LIG       1               0.0000000000
        17         1  LIG       CA1             1.6217594556       18.8722899183        0.5976671411  LIG       1               0.0000000000
        18         1  LIG       CB1             2.7979640590       18.7501438876       -0.4162672559  LIG       1               0.0000000000
        19         1  LIG       CG              3.5791088716       20.0246193193       -0.6991006912  LIG       1               0.0000000000
        20         1  LIG       CD1             4.2946157106       20.7010212959        0.3060613174  LIG       1               0.0000000000
        21         1  LIG       CE1             5.1024767134       21.8039808386       -0.0059840453  LIG       1               0.0000000000
        22         1  LIG       CZ              5.2181979881       22.2337455546       -1.3332457210  LIG       1               0.0000000000
        23         1  LIG       CE2             4.5274077479       21.5605829809       -2.3472123040  LIG       1               0.0000000000
        24         1  LIG       CD2             3.7151574964       20.4640513150       -2.0303224206  LIG       1               0.0000000000
        25         1  LIG       N2              4.0432596488       19.8496695524        4.1938920694  LIG       1               0.0000000000
        26         1  LIG       CA2             2.6624129348       19.3936468013        4.2273051643  LIG       1               0.0000000000
        27         1  LIG       C12             2.0475450330       19.7673922917        2.8956855104  LIG       1               0.0000000000
        28         1  LIG       O4              1.5647289582       20.8875225330        2.6844255190  LIG       1               0.0000000000
        29         1  LIG       CB2             1.8832804502       19.9512985348        5.4195929953  LIG       1               0.0000000000
        30         1  LIG       CG2             0.4234774878       19.4457691337        5.4130543829  LIG       1               0.0000000000
        31         1  LIG       CG1             2.5901780396       19.4993525584        6.7167736594  LIG       1               0.0000000000
        32         1  LIG       C25             5.1106668876       19.0380362060        4.0722914932  LIG       1               0.0000000000
        33         1  LIG       O5              4.9732425028       17.8166001482        4.0565169987  LIG       1               0.0000000000
        34         1  LIG       C26             6.4753874715       19.6893927000        3.9539076590  LIG       1               0.0000000000
        35         1  LIG       C27             7.4646888605       18.7872434198        3.1294733441  LIG       1               0.0000000000
        36         1  LIG       C28             7.0599470679       19.9887060878        5.3670932503  LIG       1               0.0000000000
        37         1  LIG       C29             8.7785542795       21.1045531130        7.6017302815  LIG       1               0.0000000000
        38         1  LIG       C30             7.4414859837       21.8698755217        7.5475080680  LIG       1               0.0000000000
        39         1  LIG       C31             6.5048882495       21.3722724846        8.6700008462  LIG       1               0.0000000000
        40         1  LIG       C32             7.6695492614       23.3822953807        7.7229208631  LIG       1               0.0000000000
        41         1  LIG       H3              0.0970887329       16.0031191101        1.1669638274  LIG       1               0.0000000000
        42         1  LIG       H11             2.3986780565       17.9009813810        2.2026148427  LIG       1               0.0000000000
        43         1  LIG       H12             4.1689008564       20.8368514782        4.2936947187  LIG       1               0.0000000000
        44         1  LIG       H4              8.7567354471       21.0177629511       -1.6309266722  LIG       1               0.0000000000
        45         1  LIG       H5              9.5504053758       21.9863088680        0.4918177780  LIG       1               0.0000000000
        46         1  LIG       H6              8.9324807898       20.9471860332        2.6425157326  LIG       1               0.0000000000
        47         1  LIG       H7              7.4922850428       19.3163421484       -2.8432333962  LIG       1               0.0000000000
        48         1  LIG       H8              6.0559816457       17.3085005919       -2.8412237062  LIG       1               0.0000000000
        49         1  LIG       H9              5.3951183321       16.2540442918       -0.6988865546  LIG       1               0.0000000000
        50         1  LIG       H10             6.1197043797       17.1749663986        1.4104967514  LIG       1               0.0000000000
        51         1  LIG       H1             -0.4371842022       18.1209009368        0.5248850011  LIG       1               0.0000000000
        52         1  LIG       H2              0.6633996884       17.3416856290       -0.6679282414  LIG       1               0.0000000000
        53         1  LIG       HA1             1.0925763888       19.8383303053        0.4063695362  LIG       1               0.0000000000
        54         1  LIG       HB1             2.4052979571       18.3756484982       -1.3845077000  LIG       1               0.0000000000
        55         1  LIG       HB2             3.5176810750       17.9999928462       -0.0302420054  LIG       1               0.0000000000
        56         1  LIG       HD1             4.2491966742       20.3603857835        1.3257914000  LIG       1               0.0000000000
        57         1  LIG       HE1             5.6552896791       22.3078436152        0.7739743978  LIG       1               0.0000000000
        58         1  LIG       HZ              5.8503672156       23.0757720094       -1.5752979116  LIG       1               0.0000000000
        59         1  LIG       HE2             4.6306962531       21.8787218623       -3.3743280944  LIG       1               0.0000000000
        60         1  LIG       HD2             3.2045208278       19.9379406254       -2.8218567535  LIG       1               0.0000000000
        61         1  LIG       HA2             2.6162130204       18.2803220768        4.3045871962  LIG       1               0.0000000000
        62         1  LIG       HB              1.8871856485       21.0655101218        5.3796389166  LIG       1               0.0000000000
        63         1  LIG       HG21            0.3905219836       18.3371956321        5.4653245768  LIG       1               0.0000000000
        64         1  LIG       HG22           -0.1166883535       19.7780644567        4.5019571737  LIG       1               0.0000000000
        65         1  LIG       HG23           -0.1185074741       19.8515576296        6.2939390384  LIG       1               0.0000000000
        66         1  LIG       HG11            3.6273226886       19.8886685364        6.7648402504  LIG       1               0.0000000000
        67         1  LIG       HG12            2.6338460469       18.3909849626        6.7706604285  LIG       1               0.0000000000
        68         1  LIG       HG13            2.0448970372       19.8766405785        7.6064261623  LIG       1               0.0000000000
        69         1  LIG       H29             6.3260468636       20.6490113585        3.4116933809  LIG       1               0.0000000000
        70         1  LIG       H30             8.4356008380       18.6938790769        3.6561776063  LIG       1               0.0000000000
        71         1  LIG       H31             7.1142976452       17.7430019421        3.0420880923  LIG       1               0.0000000000
        72         1  LIG       H32             6.7599591467       19.2483297760        6.1331785003  LIG       1               0.0000000000
        73         1  LIG       H33             8.1653218238       20.0028336407        5.2731526634  LIG       1               0.0000000000
        74         1  LIG       H34             9.4107528877       21.3763087572        6.7294803671  LIG       1               0.0000000000
        75         1  LIG       H35             8.6104734150       20.0078096740        7.6018343550  LIG       1               0.0000000000
        76         1  LIG       H36             9.3321697988       21.3671827609        8.5267386351  LIG       1               0.0000000000
        77         1  LIG       H37             6.2484765788       20.3017679455        8.5368772525  LIG       1               0.0000000000
        78         1  LIG       H38             5.5632443364       21.9622305409        8.6735266999  LIG       1               0.0000000000
        79         1  LIG       H39             6.9944381254       21.5014854405        9.6582516433  LIG       1               0.0000000000
        80         1  LIG       H40             6.6971830254       23.9187428536        7.6739780542  LIG       1               0.0000000000
        81         1  LIG       H41             8.3261231426       23.7752306740        6.9185188840  LIG       1               0.0000000000
        82         1  LIG       H42             8.1421325405       23.5932732531        8.7033899371  LIG       1               0.0000000000
