* GENERATED BY CHARMM-GUI (HTTP://WWW.CHARMM-GUI.ORG)
*
        40  EXT
         1         1  LIG       S1              6.6210000000       21.6220000000        5.9190000000  LIG       1               0.0000000000
         2         1  LIG       O1              7.1970000000       22.5700000000        5.0060000000  LIG       1               0.0000000000
         3         1  LIG       O2              5.2160000000       21.6780000000        6.1610000000  LIG       1               0.0000000000
         4         1  LIG       C1              8.4910000000       20.5780000000       -0.6840000000  LIG       1               0.0000000000
         5         1  LIG       C2              8.9520000000       21.1350000000        0.4700000000  LIG       1               0.0000000000
         6         1  LIG       C3              8.6110000000       20.5470000000        1.7520000000  LIG       1               0.0000000000
         7         1  LIG       C4              7.8370000000       19.4420000000        1.8080000000  LIG       1               0.0000000000
         8         1  LIG       C5              7.3020000000       18.8100000000        0.5580000000  LIG       1               0.0000000000
         9         1  LIG       C6              7.6630000000       19.4050000000       -0.6580000000  LIG       1               0.0000000000
        10         1  LIG       C7              7.2020000000       18.8360000000       -1.8950000000  LIG       1               0.0000000000
        11         1  LIG       C8              6.4000000000       17.7250000000       -1.8720000000  LIG       1               0.0000000000
        12         1  LIG       C9              6.0270000000       17.1270000000       -0.6360000000  LIG       1               0.0000000000
        13         1  LIG       C10             6.4850000000       17.6740000000        0.5660000000  LIG       1               0.0000000000
        14         1  LIG       O3              0.8330000000       16.7560000000        1.3920000000  LIG       1               0.0000000000
        15         1  LIG       C11             0.5440000000       17.7320000000        0.3250000000  LIG       1               0.0000000000
        16         1  LIG       N1              2.0570000000       18.7450000000        1.9350000000  LIG       1               0.0000000000
        17         1  LIG       CA1             1.5590000000       18.8860000000        0.5560000000  LIG       1               0.0000000000
        18         1  LIG       CB1             2.7730000000       18.7840000000       -0.3990000000  LIG       1               0.0000000000
        19         1  LIG       CG              3.6070000000       20.0130000000       -0.6960000000  LIG       1               0.0000000000
        20         1  LIG       CD1             4.3250000000       20.7120000000        0.2810000000  LIG       1               0.0000000000
        21         1  LIG       CE1             5.1390000000       21.8120000000       -0.0140000000  LIG       1               0.0000000000
        22         1  LIG       CZ              5.2350000000       22.2400000000       -1.3430000000  LIG       1               0.0000000000
        23         1  LIG       CE2             4.5510000000       21.5480000000       -2.3400000000  LIG       1               0.0000000000
        24         1  LIG       CD2             3.7440000000       20.4500000000       -2.0240000000  LIG       1               0.0000000000
        25         1  LIG       N2              4.0580000000       19.8270000000        4.1670000000  LIG       1               0.0000000000
        26         1  LIG       CA2             2.6510000000       19.3550000000        4.2450000000  LIG       1               0.0000000000
        27         1  LIG       C12             2.0520000000       19.7810000000        2.8510000000  LIG       1               0.0000000000
        28         1  LIG       O4              1.5660000000       20.8720000000        2.5940000000  LIG       1               0.0000000000
        29         1  LIG       CB2             1.8570000000       19.9250000000        5.4460000000  LIG       1               0.0000000000
        30         1  LIG       CG2             0.3960000000       19.4450000000        5.4290000000  LIG       1               0.0000000000
        31         1  LIG       CG1             2.6140000000       19.4920000000        6.7240000000  LIG       1               0.0000000000
        32         1  LIG       C25             5.1360000000       19.0020000000        4.0570000000  LIG       1               0.0000000000
        33         1  LIG       O5              5.0400000000       17.7710000000        3.9800000000  LIG       1               0.0000000000
        34         1  LIG       C26             6.5010000000       19.7110000000        3.9380000000  LIG       1               0.0000000000
        35         1  LIG       C27             7.3870000000       18.7490000000        3.1060000000  LIG       1               0.0000000000
        36         1  LIG       C28             7.1440000000       20.0210000000        5.3290000000  LIG       1               0.0000000000
        37         1  LIG       C29             8.7840000000       21.0840000000        7.5860000000  LIG       1               0.0000000000
        38         1  LIG       C30             7.4290000000       21.8340000000        7.5600000000  LIG       1               0.0000000000
        39         1  LIG       C31             6.4910000000       21.3910000000        8.7100000000  LIG       1               0.0000000000
        40         1  LIG       C32             7.6420000000       23.3600000000        7.7150000000  LIG       1               0.0000000000
